  MPI-parallelism will be employed.
------------------------------------------------------------
          Invoking FHI-aims ...
          Version 180319
          Git rev.: 4a4f92f IYZ: fix a mpi communication bug for osRPA
          Compiled on 2018/04/08 at 15:28:21 on host xhpc1.

          When using FHI-aims, please cite the following reference:

          Volker Blum, Ralf Gehrke, Felix Hanke, Paula Havu,
          Ville Havu, Xinguo Ren, Karsten Reuter, and Matthias Scheffler,
          'Ab Initio Molecular Simulations with Numeric Atom-Centered Orbitals',
          Computer Physics Communications 180, 2175-2196 (2009)

          For any questions about FHI-aims, please visit the aimsclub website
          with its forums and wiki. Contributions to both the forums and the
          wiki are warmly encouraged - they are for you, and everyone is welcome there.

------------------------------------------------------------



  Date     :  20230425, Time     :  133603.353
  Time zero on CPU 1             :   0.694449000000000E+00  s.
  Internal wall clock time zero  :           451661763.353  s.

  FHI-aims created a unique identifier for this run for later identification
  aims_uuid : D650CC6C-0B74-490E-AD42-ACEB8F149C78

  Using        8 parallel tasks.
  Task        0 on host xc06n01 reporting.
  Task        1 on host xc06n01 reporting.
  Task        2 on host xc06n01 reporting.
  Task        3 on host xc06n01 reporting.
  Task        4 on host xc06n01 reporting.
  Task        5 on host xc06n01 reporting.
  Task        6 on host xc06n01 reporting.
  Task        7 on host xc06n01 reporting.

  Performing system and environment tests:
  | Environment variable OMP_NUM_THREADS correctly set to 1.
  | Maximum stacksize for task 0: unlimited
  | Maximum stacksize for task 1: unlimited
  | Maximum stacksize for task 2: unlimited
  | Maximum stacksize for task 3: unlimited
  | Maximum stacksize for task 4: unlimited
  | Maximum stacksize for task 5: unlimited
  | Maximum stacksize for task 6: unlimited
  | Maximum stacksize for task 7: unlimited
  | Current stacksize for task 0: unlimited
  | Current stacksize for task 1: unlimited
  | Current stacksize for task 2: unlimited
  | Current stacksize for task 3: unlimited
  | Current stacksize for task 4: unlimited
  | Current stacksize for task 5: unlimited
  | Current stacksize for task 6: unlimited
  | Current stacksize for task 7: unlimited
  | Checking for scalapack...
  | Testing pdtran()...
  | All pdtran() tests passed.

  Obtaining array dimensions for all initial allocations:
  
  -----------------------------------------------------------------------
  Parsing control.in (first pass over file, find array dimensions only).
  The contents of control.in will be repeated verbatim below
  unless switched off by setting 'verbatim_writeout .false.' .
  in the first line of control.in .
  -----------------------------------------------------------------------
  
  xc                       zrps
  RI_method                V
  KS_method                serial
  #frequency_points         60
  frozen_core_postSCF      0
  relativistic             none
  occupation_type          gaussian 0.0001
  mixer                    pulay
  n_max_pulay              10
  charge_mix_param         0.6
  sc_iter_limit            1000
  sc_accuracy_rho          1E-6
  sc_accuracy_eev          1E-4
  sc_accuracy_etot         1E-6
  override_illconditioning .true.
  charge                   0.0
  #spin                     collinear
  #fixed_spin_moment        0
  #default_initial_moment   0
  
  
  ################################################################################
  #
  #  FHI-aims code project
  # Igor Ying Zhang and Xinguo Ren, Fritz Haber Institute Berlin, 2012
  #
  #  Suggested "cc-pVDZ" defaults for H atom (to be pasted into control.in file)
  #
  ################################################################################
    species        H
  #     global species definitions
      nucleus             1
      mass                1.00794
  #
      l_hartree           6
  #
      cut_pot             4.0  2.0  1.0
      basis_dep_cutoff    0e-0
  #
      radial_base         24 7.0
      radial_multiplier   6
      angular_grids       specified
        division   0.1930   50
        division   0.3175  110
        division   0.4293  194
        division   0.5066  302
        division   0.5626  434
        division   0.5922  590
  #      division   0.6227  974
  #      division   0.6868 1202
        outer_grid  770
  #      outer_grid  434
  ################################################################################
  #
  #  Definition of "minimal" basis
  #
  ################################################################################
  #     valence basis states
      valence      1  s   1.
  #     ion occupancy
      ion_occ      1  s   0.5
  ################################################################################
  #
  #   For exact comparison with all GTO-based codes, one or more of
  #   the following flags are needed:
  #
      include_min_basis   .false.
      pure_gauss          .true.
  #
  
  
  # H cc-pVDZ
   gaussian 0 3
        13.0100000            0.0196850
         1.9620000            0.1379770
         0.4446000            0.4781480
   gaussian 0 1 0.1220000
   gaussian 1 1 0.7270000
  ################################################################################
  #
  #  FHI-aims code project
  # Igor Ying Zhang and Xinguo Ren, Fritz Haber Institute Berlin, 2012
  #
  #  Suggested "cc-pVDZ" defaults for N atom (to be pasted into control.in file)
  #
  ################################################################################
    species        N
  #     global species definitions
      nucleus             7
      mass                14.0067
  #
      l_hartree           6
  #
      cut_pot             4.0  2.0  1.0
      basis_dep_cutoff    0e-0
  #
      radial_base         35 7.0
      radial_multiplier   6
      angular_grids       specified
        division   0.1841   50
        division   0.3514  110
        division   0.5126  194
        division   0.6292  302
        division   0.6939  434
        division   0.7396  590
  #      division   0.7632  770
  #      division   0.8122  974
  #      division   1.1604 1202
  #      outer_grid  974
        outer_grid  770
  #      outer_grid  434
  ################################################################################
  #
  #  Definition of "minimal" basis
  #
  ################################################################################
  #     valence basis states
      valence      2  s   2.
      valence      2  p   3.
  #     ion occupancy
      ion_occ      2  s   1.
      ion_occ      2  p   2.
  ################################################################################
  #
  #   For exact comparison with all GTO-based codes, one or more of
  #   the following flags are needed:
  #
      include_min_basis   .false.
      pure_gauss          .true.
  #
  
  
  # N cc-pVDZ
   gaussian 0 8
      9046.0000000            0.0007000
      1357.0000000            0.0053890
       309.3000000            0.0274060
        87.7300000            0.1032070
        28.5600000            0.2787230
        10.2100000            0.4485400
         3.8380000            0.2782380
         0.7466000            0.0154400
   gaussian 0 8
      9046.0000000           -0.0001530
      1357.0000000           -0.0012080
       309.3000000           -0.0059920
        87.7300000           -0.0245440
        28.5600000           -0.0674590
        10.2100000           -0.1580780
         3.8380000           -0.1218310
         0.7466000            0.5490030
   gaussian 0 1 0.2248000
   gaussian 1 3
        13.5500000            0.0399190
         2.9170000            0.2171690
         0.7973000            0.5103190
   gaussian 1 1 0.2185000
   gaussian 2 1 0.8170000
  
  -----------------------------------------------------------------------
  Completed first pass over input file control.in .
  -----------------------------------------------------------------------
  
  
  -----------------------------------------------------------------------
  Parsing geometry.in (first pass over file, find array dimensions only).
  The contents of geometry.in will be repeated verbatim below
  unless switched off by setting 'verbatim_writeout .false.' .
  in the first line of geometry.in .
  -----------------------------------------------------------------------
  
  atom  -2.1988391019      1.8973746268      0.0000000000    N
  atom  -1.1788391019      1.8973746268      0.0000000000    H
  atom  -2.5388353987      1.0925460144     -0.5263586446    H
  atom  -2.5388400276      2.7556271745     -0.4338224694    H
  
  
  -----------------------------------------------------------------------
  Completed first pass over input file geometry.in .
  -----------------------------------------------------------------------
  

  Basic array size parameters:
  | Number of species                 :        2
  | Number of atoms                   :        4
  | Max. basis fn. angular momentum   :        2
  | Max. atomic/ionic basis occupied n:        2
  | Max. number of basis fn. types    :        1
  | Max. radial fns per species/type  :        7
  | Max. logarithmic grid size        :     1290
  | Max. radial integration grid size :      215
  | Max. angular integration grid size:      770
  | Max. angular grid division number :        8
  | Radial grid for Hartree potential :     1290
  | Number of spin channels           :        1

------------------------------------------------------------
          Reading file control.in.
------------------------------------------------------------
  XC: Using one-parameter Level-5 ZRPS functional NOTE :: PBE0 REFERENCE IS REQUIRED
  Energy shifting on the denominators:      3
  Coupling factor for PT2 on the denominators:       1.00000000
  Screening factor for coupling PT2:       1.00000000
  Shift for screening effect in coupling PT2:       0.00000000
 The 'V' version of RI (resolution of identity) technique is used.
  Kohn-Sham eigenvalues and eigenfunctions calculated by ELSI.
  Core electrons are frozen in the post-SCF calculation :     0
  Non-relativistic treatment of kinetic energy.
  Occupation type: Gaussian broadening, width =   0.100000E-03 eV.
  Using pulay charge density mixing.
  Pulay mixing - number of memorized iterations:   10
  Charge density mixing - mixing parameter:     0.6000
  Maximum number of s.-c. iterations  :  1000
  Convergence accuracy of self-consistent charge density:  0.1000E-05
  Convergence accuracy of sum of eigenvalues:  0.1000E-03
  Convergence accuracy of total energy:  0.1000E-05
  override_illconditioning: Explicitly overriding any built-in checks for an ill-conditioned overlap matrix.
  *** WARNING: If you use this flag, you should really know what you are doing.
  *** DO NOT keep this flag set by default in all your control.in files.
  Charge =   0.000000E+00: Neutral system requested explicitly.
 
  Reading configuration options for species H                   .
  | Found nuclear charge :   1.0000
  | Found atomic mass :    1.00794000000000      amu
  | Found l_max for Hartree potential  :   6
  | Found cutoff potl. onset [A], width [A], scale factor :    4.00000    2.00000    1.00000
  | Threshold for basis-dependent cutoff potential is   0.000000E+00
  | Found data for basic radial integration grid :    24 points, outermost radius =    7.000 A
  | Found multiplier for basic radial grid :   6
  | Found angular grid specification: user-specified.
  | Specified grid contains     7 separate shells.
  | Check grid settings after all constraints further below.
  | Found free-atom valence shell :  1 s   1.000
  | No ionic wave fns used. Skipping ion_occ.
  | Found request to include minimal basis fns. :     F
  | Found request to include pure gaussian fns. :     T
  | Found contracted cartesian Gaussian basis function :  L = 0 ,   3 elementary Gaussians:
  |   alpha = 0.130100E+02 weight = 0.196850E-01
  |   alpha = 0.196200E+01 weight = 0.137977E+00
  |   alpha = 0.444600E+00 weight = 0.478148E+00
  |   In terms of angular momentum, this radial function adds: 
  |     1 s-type basis function
  | Found primitive cartesian Gaussian basis function :  0 0.122000E+00
  |   In terms of angular momentum, this radial function adds: 
  |     1 s-type basis function
  | Found primitive cartesian Gaussian basis function :  1 0.727000E+00
  |   In terms of angular momentum, this radial function adds: 
  |     3 p-type basis functions
  Species H                   : Missing cutoff potential type.
  Defaulting to exp(1/x)/(1-x)^2 type cutoff potential.
  Species H : No 'logarithmic' tag. Using default grid for free atom:
  | Default logarithmic grid data [bohr] : 0.1000E-03 0.1000E+03 0.1012E+01
  Species H : On-site basis accuracy parameter (for Gram-Schmidt orthonormalisation) not specified.
  Using default value basis_acc =  0.1000000E-03.
  Species H                   : Using default innermost maximum threshold i_radial=  2 for radial functions.
  Species H                   : Default cutoff onset for free atom density etc. is infinite
  since the product basis is used (hybrid functionals, Hartree-Fock, GW etc.).
  Species H                   : Basic radial grid will be enhanced according to radial_multiplier =   6, to contain   149 grid points.
 
  Reading configuration options for species N                   .
  | Found nuclear charge :   7.0000
  | Found atomic mass :    14.0067000000000      amu
  | Found l_max for Hartree potential  :   6
  | Found cutoff potl. onset [A], width [A], scale factor :    4.00000    2.00000    1.00000
  | Threshold for basis-dependent cutoff potential is   0.000000E+00
  | Found data for basic radial integration grid :    35 points, outermost radius =    7.000 A
  | Found multiplier for basic radial grid :   6
  | Found angular grid specification: user-specified.
  | Specified grid contains     7 separate shells.
  | Check grid settings after all constraints further below.
  | Found free-atom valence shell :  2 s   2.000
  | Found free-atom valence shell :  2 p   3.000
  | No ionic wave fns used. Skipping ion_occ.
  | No ionic wave fns used. Skipping ion_occ.
  | Found request to include minimal basis fns. :     F
  | Found request to include pure gaussian fns. :     T
  | Found contracted cartesian Gaussian basis function :  L = 0 ,   8 elementary Gaussians:
  |   alpha = 0.904600E+04 weight = 0.700000E-03
  |   alpha = 0.135700E+04 weight = 0.538900E-02
  |   alpha = 0.309300E+03 weight = 0.274060E-01
  |   alpha = 0.877300E+02 weight = 0.103207E+00
  |   alpha = 0.285600E+02 weight = 0.278723E+00
  |   alpha = 0.102100E+02 weight = 0.448540E+00
  |   alpha = 0.383800E+01 weight = 0.278238E+00
  |   alpha = 0.746600E+00 weight = 0.154400E-01
  |   In terms of angular momentum, this radial function adds: 
  |     1 s-type basis function
  | Found contracted cartesian Gaussian basis function :  L = 0 ,   8 elementary Gaussians:
  |   alpha = 0.904600E+04 weight = -.153000E-03
  |   alpha = 0.135700E+04 weight = -.120800E-02
  |   alpha = 0.309300E+03 weight = -.599200E-02
  |   alpha = 0.877300E+02 weight = -.245440E-01
  |   alpha = 0.285600E+02 weight = -.674590E-01
  |   alpha = 0.102100E+02 weight = -.158078E+00
  |   alpha = 0.383800E+01 weight = -.121831E+00
  |   alpha = 0.746600E+00 weight = 0.549003E+00
  |   In terms of angular momentum, this radial function adds: 
  |     1 s-type basis function
  | Found primitive cartesian Gaussian basis function :  0 0.224800E+00
  |   In terms of angular momentum, this radial function adds: 
  |     1 s-type basis function
  | Found contracted cartesian Gaussian basis function :  L = 1 ,   3 elementary Gaussians:
  |   alpha = 0.135500E+02 weight = 0.399190E-01
  |   alpha = 0.291700E+01 weight = 0.217169E+00
  |   alpha = 0.797300E+00 weight = 0.510319E+00
  |   In terms of angular momentum, this radial function adds: 
  |     3 p-type basis functions
  | Found primitive cartesian Gaussian basis function :  1 0.218500E+00
  |   In terms of angular momentum, this radial function adds: 
  |     3 p-type basis functions
  | Found primitive cartesian Gaussian basis function :  2 0.817000E+00
  |   In terms of angular momentum, this radial function adds: 
  |     5 d-type basis functions
  Species N                   : Missing cutoff potential type.
  Defaulting to exp(1/x)/(1-x)^2 type cutoff potential.
  Species N : No 'logarithmic' tag. Using default grid for free atom:
  | Default logarithmic grid data [bohr] : 0.1000E-03 0.1000E+03 0.1012E+01
  Species N : On-site basis accuracy parameter (for Gram-Schmidt orthonormalisation) not specified.
  Using default value basis_acc =  0.1000000E-03.
  Species N                   : Using default innermost maximum threshold i_radial=  2 for radial functions.
  Species N                   : Default cutoff onset for free atom density etc. is infinite
  since the product basis is used (hybrid functionals, Hartree-Fock, GW etc.).
  Species N                   : Basic radial grid will be enhanced according to radial_multiplier =   6, to contain   215 grid points.
 
  Finished reading input file 'control.in'. Consistency checks are next.
 
  MPI_IN_PLACE appears to work with this MPI implementation.
  | Keeping use_mpi_in_place .true. (see manual).
  Species H: Using default value for prodbas_acc =   1.000000E-02.
  Species H: Using default value max_l_prodbas =     5.
  Species N: Using default value for prodbas_acc =   1.000000E-02.
  Species N: Using default value max_l_prodbas =     5.
 * Species N: Specified min. number of angular integration points is    50
 * The angular momenta for this species require   110 for RI_type 'V'. Increasing angular_min to   110.
 * Species N: Grid shell     1 contains only    50 angular integration points.
 * Increasing to angular_min =   110 integration points.
 * This change is related to the three-center integrals used in RI_method 'V'.
  Target number of points in a grid batch is not set. Defaulting to  100
  Method for grid partitioning is not set. Defaulting to parallel hash+maxmin partitioning.
  Batch size limit is not set. Defaulting to    200
  By default, will store active basis functions for each batch.
  If in need of memory, prune_basis_once .false. can be used to disable this option.
  communication_type for Hartree potential was not specified.
  Defaulting to calc_hartree .
  Pulay mixer: Number of initial linear mixing iterations not set.
  Defaulting to    0 iterations.
  Work space size for distributed Hartree potential not set.
  Defaulting to   0.200000E+03 MB.
  Algorithm-dependent basis array size parameters:
  | n_max_pulay                         :       10
  Presetting      1001 iterations before the initial mixing cycle
  is restarted anyway using the sc_init_iter criterion / keyword.
  Presetting a factor      1.000 between actual scf density residual
  and density convergence criterion sc_accuracy_rho below which sc_init_iter
  takes no effect.
  Calculation of forces was not defined in control.in. No forces will be calculated.
  Geometry relaxation not requested: no relaxation will be performed.
  No accuracy limit for integral partition fn. given. Defaulting to  0.1000E-14.
  No threshold value for u(r) in integrations given. Defaulting to  0.1000E-05.
  No accuracy for occupation numbers given. Defaulting to  0.1000E-12.
  No threshold value for occupation numbers given. Defaulting to  0.0000E+00.
  No accuracy for fermi level given. Defaulting to  0.1000E-19.
  Maximum # of iterations to find E_F not set. Defaulting to  200.
  Will not use alltoall communication since running on < 1024 CPUs.
  Threshold for basis singularities not set.
  Default threshold for basis singularities:  0.1000E-04
  partition_type (choice of integration weights) for integrals was not specified.
  | Using a version of the partition function of Stratmann and coworkers ('stratmann_smoother').
  | At each grid point, the set of atoms used to build the partition table is smoothly restricted to
  | only those atoms whose free-atom density would be non-zero at that grid point.
  Partitioning for Hartree potential was not defined. Using partition_type for integrals.
  | Adjusted default value of keyword multip_moments_threshold to:       0.10000000E-11
  | This value may affect high angular momentum components of the Hartree potential in periodic systems.
  Spin handling was not defined in control.in. Defaulting to unpolarized case.
  Threshold for auxiliary basis singularities not set.
  Default threshold for auxiliary basis singularities:  0.1000E-04
  No q(lm)/r^(l+1) cutoff set for long-range Hartree potential.
  | Using default value of  0.100000E-09 .
  | Verify using the multipole_threshold keyword.
  Defaulting to new monopole extrapolation.
  Density update method: automatic selection selected.
  Default to 1D ("use_logsbt") integrations for auxiliary 2-center integrals.
  Default onset of logarithmic r-grid for SBT is-38.000000000000
  Default onset of logarithmic k-grid for SBT is-25.000000000000
  Default range of logarithmic r- and k-grid for SBT is 45.000000000000
  Default number of logarithmic r- and k-grid for SBT is  4096
------------------------------------------------------------


------------------------------------------------------------
          Reading geometry description geometry.in.
------------------------------------------------------------
  Input structure read successfully.
  The structure contains        4 atoms,  and a total of         10.000 electrons.

  Input geometry:
  | No unit cell requested.
  | Atomic structure:
  |       Atom                x [A]            y [A]            z [A]
  |    1: Species N            -2.19883910        1.89737463        0.00000000
  |    2: Species H            -1.17883910        1.89737463        0.00000000
  |    3: Species H            -2.53883540        1.09254601       -0.52635864
  |    4: Species H            -2.53884003        2.75562717       -0.43382247
  |

  | The smallest distance between any two atoms is         1.02000000 AA.
  |
  | The first atom of this pair is atom number                      1 .
  | The second atom of this pair is atom number                     3 .

  Number of empty states per atom not set in control.in .
  | Since you are using a method that relies on the unoccupied spectrum
  | (MP2,GW,RPA et al.), will use the full Hamiltonian size (see below)
  | as the max. possible number of states (occupied plus empty).

  First valence state in the frozen-core algorithm :           1
  |                             Main-group    Transition-metal
  | Atom number     ::                   4                   0
  | n_frozen_shell  ::                   0                   0
  Structure-dependent array size parameters: 
  | Maximum number of distinct radial functions  :        9
  | Maximum number of basis functions            :       29
  | Number of Kohn-Sham states (occupied + empty):       29
  | Number of core electrons for post-SCF        :        0
------------------------------------------------------------

------------------------------------------------------------
          Preparing all fixed parts of the calculation.
------------------------------------------------------------
  Determining machine precision:
    2.225073858507201E-308
  Setting up grids for atomic and cluster calculations.

  Creating wave function, potential, and density for free atoms.

  Species: H

  List of occupied orbitals and eigenvalues:
    n    l              occ      energy [Ha]    energy [eV]
    1    0           1.0000        -0.238600        -6.4926


  Species: N

  List of occupied orbitals and eigenvalues:
    n    l              occ      energy [Ha]    energy [eV]
    1    0           2.0000       -14.129248      -384.4764
    2    0           2.0000        -0.681982       -18.5577
    2    1           3.0000        -0.260725        -7.0947

  Creating fixed part of basis set: Ionic, confined, hydrogenic.
 
  H                    Gaussian:
 
  List of cartesian Gaussian basis orbitals: 
    L    l
    0    0
    0    0
    1    1
 
 
  N                    Gaussian:
 
  List of cartesian Gaussian basis orbitals: 
    L    l
    0    0
    0    0
    0    0
    1    1
    1    1
    2    2
 

  Adding cutoff potential to free-atom effective potential.
  Creating atomic-like basis functions for current effective potential.
  Assembling full basis from fixed parts.
  | Species H : gaussian orbital   0 s accepted.
  | Species H : gaussian orbital   0 s accepted.
  | Species H : gaussian orbital   1 p accepted.
  | Species N : gaussian orbital   0 s accepted.
  | Species N : gaussian orbital   0 s accepted.
  | Species N : gaussian orbital   0 s accepted.
  | Species N : gaussian orbital   1 p accepted.
  | Species N : gaussian orbital   1 p accepted.
  | Species N : gaussian orbital   2 d accepted.
 
  Basis size parameters after reduction:
  | Total number of radial functions:        9
  | Total number of basis functions :       29
 
  Per-task memory consumption for arrays in subroutine allocate_ext:
  |           2.230468MB.
  Testing on-site integration grid accuracy.
  |  Species  Function  <phi|h_atom|phi> (log., in eV)  <phi|h_atom|phi> (rad., in eV)
           1        1                 -3.5819590401                 -3.5819602135
           1        2                  8.3309295161                  8.3309289796
           1        3                 32.4058937669                 32.4058937205
           2        4               -384.4282675036               -384.4283262775
           2        5                -13.9752508332                -13.9752546336
           2        6                 15.7757396467                 15.7757394926
           2        7                 -2.9542300607                 -2.9542301655
           2        8                 13.2306512513                 13.2306512047
           2        9                 44.5502786740                 44.5502785170

  Preparing densities etc. for the partition functions (integrals / Hartree potential).

  Preparations completed.
  max(cpu_time)          :      0.122 s.
  Wall clock time (cpu1) :      0.157 s.
------------------------------------------------------------

------------------------------------------------------------
          Begin self-consistency loop: Initialization.

          Date     :  20230425, Time     :  133603.646
------------------------------------------------------------

  Initializing index lists of integration centers etc. from given atomic structure:
  | Number of centers in hartree potential         :         4
  | Number of centers in hartree multipole         :         4
  | Number of centers in electron density summation:         4
  | Number of centers in basis integrals           :         4
  | Number of centers in integrals                 :         4
  | Number of centers in hamiltonian               :         4
  Partitioning the integration grid into batches with parallel hashing+maxmin method.
  | Number of batches:     3437
  | Maximal batch size:     196
  | Minimal batch size:      49
  | Average batch size:      91.633
  | Standard deviation of batch sizes:      32.487

  Integration load balanced across     8 MPI tasks.
  Work distribution over tasks is as follows:
  Task     0 has      39332 integration points.
  Task     1 has      39458 integration points.
  Task     2 has      39325 integration points.
  Task     3 has      39393 integration points.
  Task     4 has      39334 integration points.
  Task     5 has      39327 integration points.
  Task     6 has      39327 integration points.
  Task     7 has      39448 integration points.
  Initializing partition tables, free-atom densities, potentials, etc. across the integration grid (initialize_grid_storage).
  | Species        1: outer_partition_radius set to             16.344003741102970 AA .
  | Species        2: outer_partition_radius set to             13.912651317759941 AA .
  | Original list of interatomic distances with           4 x          4 entries is created.
  | Net number of integration points:   314944
  | of which are non-zero points    :   263171
  Renormalizing the initial density to the exact electron count on the 3D integration grid.
  | Initial density: Formal number of electrons (from input files) :      10.0000000000
  | Integrated number of electrons on 3D grid     :       9.9999999809
  | Charge integration error                      :      -0.0000000191
  | Normalization factor for density and gradient :       1.0000000019
  Obtaining max. number of non-zero basis functions in each batch (get_n_compute_maxes).
  | Maximal number of non-zero basis functions:       29 in task     0
  | Maximal number of non-zero basis functions:       29 in task     1
  | Maximal number of non-zero basis functions:       29 in task     2
  | Maximal number of non-zero basis functions:       29 in task     3
  | Maximal number of non-zero basis functions:       29 in task     4
  | Maximal number of non-zero basis functions:       29 in task     5
  | Maximal number of non-zero basis functions:       29 in task     6
  | Maximal number of non-zero basis functions:       29 in task     7
  Selecting the method for density update.
  Loop over occupied states selected for charge density update.
  Allocating        0.007 MB for KS_eigenvector
  Integrating Hamiltonian matrix: batch-based integration.
  Time summed over all CPUs for integration: real work        0.640 s, elapsed        0.655 s
  Integrating overlap matrix.
  Time summed over all CPUs for integration: real work        0.206 s, elapsed        0.218 s

  Updating Kohn-Sham eigenvalues and eigenvectors using ELSI and the ELPA eigensolver.
  Overlap matrix is nonsingular
  | Lowest eigenvalue of overlap  :  0.32E-01
  | Highest eigenvalue of overlap :  0.31E+01
  Finished singularity check of overlap matrix
  | Time :     0.004 s
  Finished Cholesky decomposition
  | Time :     0.008 s
  Finished transformation to standard eigenproblem
  | Time :     0.002 s
  Starting LAPACK eigensolver
  Finished solving standard eigenproblem
  | Time :     0.001 s
  Finished back-transformation of eigenvectors
  | Time :     0.001 s

  Obtaining occupation numbers and chemical potential using ELSI.
  | Chemical potential (Fermi level):    -7.01773728eV
  Writing Kohn-Sham eigenvalues.

  State    Occupation    Eigenvalue [Ha]    Eigenvalue [eV]
      1       2.00000         -14.262677         -388.10717
      2       2.00000          -0.968216          -26.34650
      3       2.00000          -0.591994          -16.10896
      4       2.00000          -0.591993          -16.10895
      5       2.00000          -0.411170          -11.18850
      6       0.00000          -0.039030           -1.06207
      7       0.00000           0.028974            0.78842
      8       0.00000           0.028974            0.78843
      9       0.00000           0.364159            9.90926
     10       0.00000           0.364159            9.90928
     11       0.00000           0.452792           12.32110
     12       0.00000           0.537782           14.63379
     13       0.00000           0.634262           17.25916
     14       0.00000           0.634262           17.25916
     15       0.00000           0.893603           24.31617
     16       0.00000           0.893604           24.31621
     17       0.00000           0.960029           26.12373
     18       0.00000           1.299366           35.35754
     19       0.00000           1.461424           39.76737
     20       0.00000           1.508955           41.06076
     21       0.00000           1.508956           41.06079
     22       0.00000           1.758850           47.86075
     23       0.00000           1.758851           47.86077
     24       0.00000           1.943616           52.88849
     25       0.00000           2.245299           61.09770
     26       0.00000           2.245300           61.09773
     27       0.00000           2.404018           65.41666
     28       0.00000           2.648753           72.07624
     29       0.00000           2.648755           72.07630

  Highest occupied state (VBM) at    -11.18850441 eV
  | Occupation number:      2.00000000

  Lowest unoccupied state (CBM) at    -1.06206600 eV
  | Occupation number:      0.00000000

  Overall HOMO-LUMO gap:     10.12643841 eV.
  Calculating total energy contributions from superposition of free atom densities.

  Total energy components:
  | Sum of eigenvalues            :         -33.65209784 Ha        -915.72017349 eV
  | XC energy correction          :          -7.65814063 Ha        -208.38860929 eV
  | XC potential correction       :           9.84118439 Ha         267.79225249 eV
  | Free-atom electrostatic energy:         -25.12626073 Ha        -683.72034178 eV
  | Hartree energy correction     :           0.00000000 Ha           0.00000000 eV
  | Entropy correction            :           0.00000000 Ha           0.00000000 eV
  | ---------------------------
  | Total energy                  :         -56.59531481 Ha       -1540.03687206 eV
  | Total energy, T -> 0          :         -56.59531481 Ha       -1540.03687206 eV  <-- do not rely on this value for anything but (periodic) metals
  | Electronic free energy        :         -56.59531481 Ha       -1540.03687206 eV

  Derived energy quantities:
  | Kinetic energy                :          55.46460862 Ha        1509.26879143 eV
  | Electrostatic energy          :        -104.40178280 Ha       -2840.91705419 eV
  | Energy correction for multipole
  | error in Hartree potential    :           0.00000000 Ha           0.00000000 eV
  | Sum of eigenvalues per atom                           :        -228.93004337 eV
  | Total energy (T->0) per atom                          :        -385.00921802 eV  <-- do not rely on this value for anything but (periodic) metals
  | Electronic free energy per atom                       :        -385.00921802 eV
 
 --------------------------------------------
  Constructing auxiliary basis (full product) ...
 
  Product basis:
  | charge radius: extent of product basis function
  | field radius: extent of its Coulomb potential
  | Species   l  charge radius    field radius  multipol momen
  |    H      1     3.215356 A      3.215356 A        8.252506E-17 a.u.
  |    H      0     3.815562 A      3.815562 A        1.866738E-16 a.u.
  |    H      0     5.781930 A      5.781930 A        2.048910E-16 a.u.
  |    H      2     2.517934 A  8.608416E+03 A            0.342576 a.u.
  |    H      1     3.254905 A  1.287336E+06 A            0.470947 a.u.
  |    H      0     5.711676 A  3.461514E+12 A            0.520541 a.u.
  |    N      0     2.196414 A      2.196414 A        1.322711E-16 a.u.
  |    N      1     2.334858 A      2.334858 A       -1.897155E-17 a.u.
  |    N      0     2.363576 A      2.363576 A       -1.358525E-16 a.u.
  |    N      0     2.874204 A      2.874204 A       -2.698063E-17 a.u.
  |    N      1     2.945344 A      2.945344 A       -2.961007E-17 a.u.
  |    N      0     2.981572 A      2.981572 A        1.009754E-17 a.u.
  |    N      2     2.981572 A      2.981572 A        9.660869E-17 a.u.
  |    N      3     3.055370 A      3.055370 A       -2.600887E-16 a.u.
  |    N      3     3.092951 A      3.092951 A       -3.981171E-16 a.u.
  |    N      0     4.355438 A      4.355438 A       -7.040385E-17 a.u.
  |    N      1     4.409010 A      4.409010 A       -2.566437E-16 a.u.
  |    N      1     4.463241 A      4.463241 A        2.881303E-16 a.u.
  |    N      2     4.518138 A      4.518138 A        3.282863E-17 a.u.
  |    N      2     4.518138 A      4.518138 A        1.386059E-16 a.u.
  |    N      2     4.518138 A      4.518138 A        1.656371E-16 a.u.
  |    N      4     2.512557 A  2.235992E+02 A            1.071854 a.u.
  |    N      3     3.130994 A  1.215155E+03 A            2.212646 a.u.
  |    N      2     4.629968 A  1.629443E+04 A            2.323294 a.u.
  |    N      1     4.518138 A  1.795284E+06 A            0.915913 a.u.
  |    N      0     4.302517 A  3.127038E+12 A            0.470243 a.u.

  | Shrink_full_auxil_basis : there are       26  radial auxiliary wave functions
                            accepted and      17 rejected.
  | Shrink_full_auxil_basis : there are totally                 118 partial auxiliary wave functions.
 
  | Number of product basis functions per thread :    15
  | Minimal requirement for computer memory :           0.000 Gbs
 
  Basis pair condensation :       435  -->        435
 
 ----------------------------------------------------
  Integrating the 3-basis-function Coulomb matrix ...
  | i_atom:            1
  | i_atom:            2
  | i_atom:            3
  | i_atom:            4
  Integrating the Coulomb interaction matrix for auxiliary basis functions (by atoms)

  SBT integration errors (all should be 'small'):
  large logFT aliasing -> increase N/lnrange
  large SBT aliasing -> decrease lnk0 & increase lnk0+lnrange
  large SBT ringing -> decrease lnr0 & increase lnr0+lnrange
  |            El't  L: logFT-al.   small-k   large-k   small-r   large-r
  Atomic logSBT for 2-center Coulomb matrix    :  max(cpu_time)    wall_clock(cpu1)
  | Multiplication with kernel                 :        0.002 s           0.002 s
  | Main matrix multiplication                 :        0.004 s           0.001 s
  | Analytic angular integration               :        0.002 s           0.000 s
  | Kernel construction                        :        0.001 s           0.001 s
  | Overall 2-center overlap time              :        0.015 s           0.010 s

  Difference of Coulomb matrix to its transposed:  3.8858E-16
  Task     0: Eigenvalues of the Coulomb matrix range from    3.7548E+00 to    8.1002E-05.
  Task     0: Using      118   eigenvalues out of rank      118   Coulomb matrix (auxiliary basis).
 
  Multiplying V^-0.5 x ovlp_3fn (1d-scalapack)

  Initialize hartree_potential_storage
  Max. number of atoms included in rho_multipole:            4

  End scf initialization - timings             :  max(cpu_time)    wall_clock(cpu1)
  | Time for scf. initialization               :        1.191 s           1.258 s
  | Boundary condition initialization          :        0.000 s           0.000 s
  | Integration                                :        0.108 s           0.111 s
  | Solution of K.-S. eqns.                    :        0.004 s           0.018 s
  | Grid partitioning                          :        0.139 s           0.151 s
  | Preloading free-atom quantities on grid    :        0.035 s           0.035 s
  | Free-atom superposition energy             :        0.032 s           0.033 s
  | Total energy evaluation                    :        0.000 s           0.001 s
  | Product basis setup: Total time            :        0.831 s           0.833 s
  | Product basis: | 3-center integrations     :        0.739 s           0.743 s
  | Product basis: | 2-center integrations     :        0.052 s           0.052 s
  | Product basis: | 2-center linear algebra   :        0.009 s           0.009 s
  | Product basis: | 3-center x 2-center       :        0.004 s           0.004 s

  Partial memory accounting:
  | Current value for overall tracked memory usage on task 0  :           0.014 MB
  | Peak value for overall tracked memory usage on task 0     :           0.158 MB after allocating wave
  | Largest tracked array allocation on task 0 so far         :           0.045 MB  when allocating H_times_psi
  Note:  These values currently only include a subset of arrays which are explicitly tracked.
  The "true" memory usage will be greater.
------------------------------------------------------------

------------------------------------------------------------
          Begin self-consistency iteration #    1

  Date     :  20230425, Time     :  133604.904
------------------------------------------------------------
  Evaluating new KS density.
  Integration grid: deviation in total charge (<rho> - N_e) =  -1.065814E-14
  Pulay mixing of updated and previous charge densities.

  Evaluating partitioned Hartree potential by multipole expansion.
  | Analytical far-field extrapolation by fixed multipoles:
  | Hartree multipole sum: apparent total charge =  -0.223073E-06
  Summing up the Hartree potential.
  Time summed over all CPUs for potential: real work        0.437 s, elapsed        0.455 s
  | RMS charge density error from multipole expansion :   0.359870E-02

  Integrating Hamiltonian matrix: batch-based integration.
  Time summed over all CPUs for integration: real work        0.541 s, elapsed        0.565 s
  Evaluating the exchange matrix ... 

  Updating Kohn-Sham eigenvalues and eigenvectors using ELSI and the ELPA eigensolver.
  Finished Cholesky decomposition
  | Time :     0.000 s
  Finished transformation to standard eigenproblem
  | Time :     0.000 s
  Starting LAPACK eigensolver
  Finished solving standard eigenproblem
  | Time :     0.000 s
  Finished back-transformation of eigenvectors
  | Time :     0.000 s

  Obtaining occupation numbers and chemical potential using ELSI.
  | Chemical potential (Fermi level):     0.80182150eV
  Writing Kohn-Sham eigenvalues.

  State    Occupation    Eigenvalue [Ha]    Eigenvalue [eV]
      1       2.00000         -14.145067         -384.90686
      2       2.00000          -0.829255          -22.56517
      3       2.00000          -0.445637          -12.12641
      4       2.00000          -0.445637          -12.12639
      5       2.00000          -0.222873           -6.06467
      6       0.00000           0.075822            2.06321
      7       0.00000           0.158723            4.31906
      8       0.00000           0.158723            4.31906
      9       0.00000           0.532119           14.47970
     10       0.00000           0.532121           14.47974
     11       0.00000           0.635770           17.30017
     12       0.00000           0.799836           21.76466
     13       0.00000           0.869937           23.67219
     14       0.00000           0.869937           23.67220
     15       0.00000           1.101353           29.96934
     16       0.00000           1.101355           29.96938
     17       0.00000           1.184643           32.23577
     18       0.00000           1.472298           40.06327
     19       0.00000           1.676830           45.62887
     20       0.00000           1.685191           45.85638
     21       0.00000           1.685192           45.85642
     22       0.00000           2.025164           55.10751
     23       0.00000           2.025165           55.10754
     24       0.00000           2.195933           59.75437
     25       0.00000           2.532785           68.92060
     26       0.00000           2.532787           68.92063
     27       0.00000           2.684511           73.04926
     28       0.00000           2.971349           80.85451
     29       0.00000           2.971351           80.85457

  Highest occupied state (VBM) at     -6.06467375 eV
  | Occupation number:      2.00000000

  Lowest unoccupied state (CBM) at     2.06321132 eV
  | Occupation number:      0.00000000

  Overall HOMO-LUMO gap:      8.12788507 eV.

  Total energy components:
  | Sum of eigenvalues            :         -32.17693664 Ha        -875.57899508 eV
  | XC energy correction          :          -4.09474436 Ha        -111.42366310 eV
  | XC potential correction       :           7.84137893 Ha         213.37477715 eV
  | Free-atom electrostatic energy:         -25.12626073 Ha        -683.72034178 eV
  | Hartree energy correction     :          -2.93468363 Ha         -79.85680452 eV
  | Entropy correction            :           0.00000000 Ha           0.00000000 eV
  | ---------------------------
  | Total energy                  :         -56.49124642 Ha       -1537.20502733 eV
  | Total energy, T -> 0          :         -56.49124642 Ha       -1537.20502733 eV  <-- do not rely on this value for anything but (periodic) metals
  | Electronic free energy        :         -56.49124642 Ha       -1537.20502733 eV

  Derived energy quantities:
  | Kinetic energy                :          69.09269413 Ha        1880.10786611 eV
  | Electrostatic energy          :        -105.49951754 Ha       -2870.78793638 eV
  | Energy correction for multipole
  | error in Hartree potential    :          -0.00550086 Ha          -0.14968615 eV
  | Sum of eigenvalues per atom                           :        -218.89474877 eV
  | Total energy (T->0) per atom                          :        -384.30125683 eV  <-- do not rely on this value for anything but (periodic) metals
  | Electronic free energy per atom                       :        -384.30125683 eV

  Self-consistency convergence accuracy:
  | Change of charge density      :  0.3364E+00
  | Change of sum of eigenvalues  :  0.4014E+02 eV
  | Change of total energy        :  0.2832E+01 eV

  End self-consistency iteration #     1       :  max(cpu_time)    wall_clock(cpu1)
  | Time for this iteration                    :        0.189 s           0.189 s
  | Charge density update                      :        0.048 s           0.048 s
  | Density mixing                             :        0.004 s           0.004 s
  | Hartree multipole update                   :        0.007 s           0.008 s
  | Hartree multipole summation                :        0.058 s           0.057 s
  | Integration                                :        0.071 s           0.071 s
  | Fock matrix evaluation                     :        0.000 s           0.001 s
  | Solution of K.-S. eqns.                    :        0.000 s           0.000 s
  | Total energy evaluation                    :        0.000 s           0.000 s

  Partial memory accounting:
  | Current value for overall tracked memory usage on task 0  :           0.014 MB
  | Peak value for overall tracked memory usage on task 0     :           0.196 MB after allocating gradient_basis_wave
  | Largest tracked array allocation on task 0 so far         :           0.136 MB  when allocating gradient_basis_wave
  Note:  These values currently only include a subset of arrays which are explicitly tracked.
  The "true" memory usage will be greater.
------------------------------------------------------------

------------------------------------------------------------
          Begin self-consistency iteration #    2

  Date     :  20230425, Time     :  133605.094
------------------------------------------------------------
  Evaluating new KS density.
  Integration grid: deviation in total charge (<rho> - N_e) =   5.329071E-15
  Pulay mixing of updated and previous charge densities.

  Evaluating partitioned Hartree potential by multipole expansion.
  | Analytical far-field extrapolation by fixed multipoles:
  | Hartree multipole sum: apparent total charge =  -0.218799E-06
  Summing up the Hartree potential.
  Time summed over all CPUs for potential: real work        0.442 s, elapsed        0.487 s
  | RMS charge density error from multipole expansion :   0.405286E-02

  Integrating Hamiltonian matrix: batch-based integration.
  Time summed over all CPUs for integration: real work        0.552 s, elapsed        0.606 s
  Evaluating the exchange matrix ... 

  Updating Kohn-Sham eigenvalues and eigenvectors using ELSI and the ELPA eigensolver.
  Finished Cholesky decomposition
  | Time :     0.000 s
  Finished transformation to standard eigenproblem
  | Time :     0.000 s
  Starting LAPACK eigensolver
  Finished solving standard eigenproblem
  | Time :     0.000 s
  Finished back-transformation of eigenvectors
  | Time :     0.000 s

  Obtaining occupation numbers and chemical potential using ELSI.
  | Chemical potential (Fermi level):    -0.57726961eV
  Highest occupied state (VBM) at     -6.95997713 eV
  | Occupation number:      2.00000000

  Lowest unoccupied state (CBM) at     1.93041664 eV
  | Occupation number:      0.00000000

  Overall HOMO-LUMO gap:      8.89039377 eV.

  Checking to see if s.c.f. parameters should be adjusted.

  Total energy components:
  | Sum of eigenvalues            :         -32.68291718 Ha        -889.34742603 eV
  | XC energy correction          :          -4.12747301 Ha        -112.31425510 eV
  | XC potential correction       :           7.78478223 Ha         211.83470254 eV
  | Free-atom electrostatic energy:         -25.12626073 Ha        -683.72034178 eV
  | Hartree energy correction     :          -2.36221869 Ha         -64.27924112 eV
  | Entropy correction            :           0.00000000 Ha           0.00000000 eV
  | ---------------------------
  | Total energy                  :         -56.51408738 Ha       -1537.82656148 eV
  | Total energy, T -> 0          :         -56.51408738 Ha       -1537.82656148 eV  <-- do not rely on this value for anything but (periodic) metals
  | Electronic free energy        :         -56.51408738 Ha       -1537.82656148 eV

  Derived energy quantities:
  | Kinetic energy                :          67.96508848 Ha        1849.42415511 eV
  | Electrostatic energy          :        -104.96541633 Ha       -2856.25430282 eV
  | Energy correction for multipole
  | error in Hartree potential    :          -0.00500752 Ha          -0.13626163 eV
  | Sum of eigenvalues per atom                           :        -222.33685651 eV
  | Total energy (T->0) per atom                          :        -384.45664037 eV  <-- do not rely on this value for anything but (periodic) metals
  | Electronic free energy per atom                       :        -384.45664037 eV

  Self-consistency convergence accuracy:
  | Change of charge density      :  0.2052E+00
  | Change of sum of eigenvalues  : -0.1377E+02 eV
  | Change of total energy        : -0.6215E+00 eV

  End self-consistency iteration #     2       :  max(cpu_time)    wall_clock(cpu1)
  | Time for this iteration                    :        0.193 s           0.193 s
  | Charge density update                      :        0.045 s           0.044 s
  | Density mixing                             :        0.005 s           0.005 s
  | Hartree multipole update                   :        0.006 s           0.006 s
  | Hartree multipole summation                :        0.061 s           0.061 s
  | Integration                                :        0.076 s           0.076 s
  | Fock matrix evaluation                     :        0.000 s           0.000 s
  | Solution of K.-S. eqns.                    :        0.000 s           0.000 s
  | Total energy evaluation                    :        0.000 s           0.000 s

  Partial memory accounting:
  | Current value for overall tracked memory usage on task 0  :           0.015 MB
  | Peak value for overall tracked memory usage on task 0     :           0.196 MB after allocating gradient_basis_wave
  | Largest tracked array allocation on task 0 so far         :           0.136 MB  when allocating gradient_basis_wave
  Note:  These values currently only include a subset of arrays which are explicitly tracked.
  The "true" memory usage will be greater.
------------------------------------------------------------

------------------------------------------------------------
          Begin self-consistency iteration #    3

  Date     :  20230425, Time     :  133605.288
------------------------------------------------------------
  Evaluating new KS density.
  Integration grid: deviation in total charge (<rho> - N_e) =   0.000000E+00
  Pulay mixing of updated and previous charge densities.

  Evaluating partitioned Hartree potential by multipole expansion.
  | Analytical far-field extrapolation by fixed multipoles:
  | Hartree multipole sum: apparent total charge =  -0.224953E-06
  Summing up the Hartree potential.
  Time summed over all CPUs for potential: real work        0.436 s, elapsed        0.458 s
  | RMS charge density error from multipole expansion :   0.520365E-02

  Integrating Hamiltonian matrix: batch-based integration.
  Time summed over all CPUs for integration: real work        0.541 s, elapsed        0.566 s
  Evaluating the exchange matrix ... 

  Updating Kohn-Sham eigenvalues and eigenvectors using ELSI and the ELPA eigensolver.
  Finished Cholesky decomposition
  | Time :     0.000 s
  Finished transformation to standard eigenproblem
  | Time :     0.000 s
  Starting LAPACK eigensolver
  Finished solving standard eigenproblem
  | Time :     0.000 s
  Finished back-transformation of eigenvectors
  | Time :     0.000 s

  Obtaining occupation numbers and chemical potential using ELSI.
  | Chemical potential (Fermi level):    -0.75385438eV
  Highest occupied state (VBM) at     -6.78395447 eV
  | Occupation number:      2.00000000

  Lowest unoccupied state (CBM) at     2.10973477 eV
  | Occupation number:      0.00000000

  Overall HOMO-LUMO gap:      8.89368923 eV.

  Total energy components:
  | Sum of eigenvalues            :         -32.73823805 Ha        -890.85278335 eV
  | XC energy correction          :          -4.13526244 Ha        -112.52621613 eV
  | XC potential correction       :           7.79041889 Ha         211.98808375 eV
  | Free-atom electrostatic energy:         -25.12626073 Ha        -683.72034178 eV
  | Hartree energy correction     :          -2.27719730 Ha         -61.96569130 eV
  | Entropy correction            :           0.00000000 Ha           0.00000000 eV
  | ---------------------------
  | Total energy                  :         -56.48653962 Ha       -1537.07694880 eV
  | Total energy, T -> 0          :         -56.48653962 Ha       -1537.07694880 eV  <-- do not rely on this value for anything but (periodic) metals
  | Electronic free energy        :         -56.48653962 Ha       -1537.07694880 eV

  Derived energy quantities:
  | Kinetic energy                :          67.63140611 Ha        1840.34419600 eV
  | Electrostatic energy          :        -104.61944133 Ha       -2846.83984430 eV
  | Energy correction for multipole
  | error in Hartree potential    :          -0.00530319 Ha          -0.14430724 eV
  | Sum of eigenvalues per atom                           :        -222.71319584 eV
  | Total energy (T->0) per atom                          :        -384.26923720 eV  <-- do not rely on this value for anything but (periodic) metals
  | Electronic free energy per atom                       :        -384.26923720 eV

  Self-consistency convergence accuracy:
  | Change of charge density      :  0.7430E-01
  | Change of sum of eigenvalues  : -0.1505E+01 eV
  | Change of total energy        :  0.7496E+00 eV

  End self-consistency iteration #     3       :  max(cpu_time)    wall_clock(cpu1)
  | Time for this iteration                    :        0.188 s           0.188 s
  | Charge density update                      :        0.047 s           0.047 s
  | Density mixing                             :        0.005 s           0.005 s
  | Hartree multipole update                   :        0.006 s           0.006 s
  | Hartree multipole summation                :        0.058 s           0.058 s
  | Integration                                :        0.071 s           0.071 s
  | Fock matrix evaluation                     :        0.000 s           0.000 s
  | Solution of K.-S. eqns.                    :        0.000 s           0.000 s
  | Total energy evaluation                    :        0.000 s           0.001 s

  Partial memory accounting:
  | Current value for overall tracked memory usage on task 0  :           0.015 MB
  | Peak value for overall tracked memory usage on task 0     :           0.197 MB after allocating gradient_basis_wave
  | Largest tracked array allocation on task 0 so far         :           0.136 MB  when allocating gradient_basis_wave
  Note:  These values currently only include a subset of arrays which are explicitly tracked.
  The "true" memory usage will be greater.
------------------------------------------------------------

------------------------------------------------------------
          Begin self-consistency iteration #    4

  Date     :  20230425, Time     :  133605.476
------------------------------------------------------------
  Evaluating new KS density.
  Integration grid: deviation in total charge (<rho> - N_e) =  -1.065814E-14
  Pulay mixing of updated and previous charge densities.

  Evaluating partitioned Hartree potential by multipole expansion.
  | Analytical far-field extrapolation by fixed multipoles:
  | Hartree multipole sum: apparent total charge =  -0.225151E-06
  Summing up the Hartree potential.
  Time summed over all CPUs for potential: real work        0.435 s, elapsed        0.457 s
  | RMS charge density error from multipole expansion :   0.516205E-02

  Integrating Hamiltonian matrix: batch-based integration.
  Time summed over all CPUs for integration: real work        0.542 s, elapsed        0.567 s
  Evaluating the exchange matrix ... 

  Updating Kohn-Sham eigenvalues and eigenvectors using ELSI and the ELPA eigensolver.
  Finished Cholesky decomposition
  | Time :     0.000 s
  Finished transformation to standard eigenproblem
  | Time :     0.000 s
  Starting LAPACK eigensolver
  Finished solving standard eigenproblem
  | Time :     0.000 s
  Finished back-transformation of eigenvectors
  | Time :     0.000 s

  Obtaining occupation numbers and chemical potential using ELSI.
  | Chemical potential (Fermi level):    -0.84490726eV
  Highest occupied state (VBM) at     -6.86468079 eV
  | Occupation number:      2.00000000

  Lowest unoccupied state (CBM) at     2.07504873 eV
  | Occupation number:      0.00000000

  Overall HOMO-LUMO gap:      8.93972952 eV.

  Total energy components:
  | Sum of eigenvalues            :         -32.77162629 Ha        -891.76132374 eV
  | XC energy correction          :          -4.13187431 Ha        -112.43402053 eV
  | XC potential correction       :           7.78520645 Ha         211.84624606 eV
  | Free-atom electrostatic energy:         -25.12626073 Ha        -683.72034178 eV
  | Hartree energy correction     :          -2.24108144 Ha         -60.98292875 eV
  | Entropy correction            :           0.00000000 Ha           0.00000000 eV
  | ---------------------------
  | Total energy                  :         -56.48563632 Ha       -1537.05236873 eV
  | Total energy, T -> 0          :         -56.48563632 Ha       -1537.05236873 eV  <-- do not rely on this value for anything but (periodic) metals
  | Electronic free energy        :         -56.48563632 Ha       -1537.05236873 eV

  Derived energy quantities:
  | Kinetic energy                :          67.61724332 Ha        1839.95880685 eV
  | Electrostatic energy          :        -104.61291642 Ha       -2846.66229227 eV
  | Energy correction for multipole
  | error in Hartree potential    :          -0.00525715 Ha          -0.14305440 eV
  | Sum of eigenvalues per atom                           :        -222.94033093 eV
  | Total energy (T->0) per atom                          :        -384.26309218 eV  <-- do not rely on this value for anything but (periodic) metals
  | Electronic free energy per atom                       :        -384.26309218 eV

  Self-consistency convergence accuracy:
  | Change of charge density      :  0.5435E-02
  | Change of sum of eigenvalues  : -0.9085E+00 eV
  | Change of total energy        :  0.2458E-01 eV

  End self-consistency iteration #     4       :  max(cpu_time)    wall_clock(cpu1)
  | Time for this iteration                    :        0.185 s           0.186 s
  | Charge density update                      :        0.045 s           0.044 s
  | Density mixing                             :        0.005 s           0.006 s
  | Hartree multipole update                   :        0.006 s           0.006 s
  | Hartree multipole summation                :        0.058 s           0.058 s
  | Integration                                :        0.071 s           0.071 s
  | Fock matrix evaluation                     :        0.000 s           0.000 s
  | Solution of K.-S. eqns.                    :        0.000 s           0.000 s
  | Total energy evaluation                    :        0.000 s           0.000 s

  Partial memory accounting:
  | Current value for overall tracked memory usage on task 0  :           0.015 MB
  | Peak value for overall tracked memory usage on task 0     :           0.197 MB after allocating gradient_basis_wave
  | Largest tracked array allocation on task 0 so far         :           0.136 MB  when allocating gradient_basis_wave
  Note:  These values currently only include a subset of arrays which are explicitly tracked.
  The "true" memory usage will be greater.
------------------------------------------------------------

------------------------------------------------------------
          Begin self-consistency iteration #    5

  Date     :  20230425, Time     :  133605.662
------------------------------------------------------------
  Evaluating new KS density.
  Integration grid: deviation in total charge (<rho> - N_e) =  -5.329071E-15
  Pulay mixing of updated and previous charge densities.

  Evaluating partitioned Hartree potential by multipole expansion.
  | Analytical far-field extrapolation by fixed multipoles:
  | Hartree multipole sum: apparent total charge =  -0.227003E-06
  Summing up the Hartree potential.
  Time summed over all CPUs for potential: real work        0.434 s, elapsed        0.453 s
  | RMS charge density error from multipole expansion :   0.518261E-02

  Integrating Hamiltonian matrix: batch-based integration.
  Time summed over all CPUs for integration: real work        0.542 s, elapsed        0.565 s
  Evaluating the exchange matrix ... 

  Updating Kohn-Sham eigenvalues and eigenvectors using ELSI and the ELPA eigensolver.
  Finished Cholesky decomposition
  | Time :     0.000 s
  Finished transformation to standard eigenproblem
  | Time :     0.000 s
  Starting LAPACK eigensolver
  Finished solving standard eigenproblem
  | Time :     0.000 s
  Finished back-transformation of eigenvectors
  | Time :     0.000 s

  Obtaining occupation numbers and chemical potential using ELSI.
  | Chemical potential (Fermi level):    -0.86329349eV
  Highest occupied state (VBM) at     -6.87247951 eV
  | Occupation number:      2.00000000

  Lowest unoccupied state (CBM) at     2.07133899 eV
  | Occupation number:      0.00000000

  Overall HOMO-LUMO gap:      8.94381849 eV.

  Total energy components:
  | Sum of eigenvalues            :         -32.77750341 Ha        -891.92124837 eV
  | XC energy correction          :          -4.13150306 Ha        -112.42391846 eV
  | XC potential correction       :           7.78432203 Ha         211.82217974 eV
  | Free-atom electrostatic energy:         -25.12626073 Ha        -683.72034178 eV
  | Hartree energy correction     :          -2.23351141 Ha         -60.77693785 eV
  | Entropy correction            :           0.00000000 Ha           0.00000000 eV
  | ---------------------------
  | Total energy                  :         -56.48445660 Ha       -1537.02026671 eV
  | Total energy, T -> 0          :         -56.48445660 Ha       -1537.02026671 eV  <-- do not rely on this value for anything but (periodic) metals
  | Electronic free energy        :         -56.48445660 Ha       -1537.02026671 eV

  Derived energy quantities:
  | Kinetic energy                :          67.60961169 Ha        1839.75113962 eV
  | Electrostatic energy          :        -104.60699535 Ha       -2846.50117197 eV
  | Energy correction for multipole
  | error in Hartree potential    :          -0.00526759 Ha          -0.14333842 eV
  | Sum of eigenvalues per atom                           :        -222.98031209 eV
  | Total energy (T->0) per atom                          :        -384.25506668 eV  <-- do not rely on this value for anything but (periodic) metals
  | Electronic free energy per atom                       :        -384.25506668 eV

  Self-consistency convergence accuracy:
  | Change of charge density      :  0.1110E-02
  | Change of sum of eigenvalues  : -0.1599E+00 eV
  | Change of total energy        :  0.3210E-01 eV

  End self-consistency iteration #     5       :  max(cpu_time)    wall_clock(cpu1)
  | Time for this iteration                    :        0.186 s           0.186 s
  | Charge density update                      :        0.045 s           0.044 s
  | Density mixing                             :        0.007 s           0.007 s
  | Hartree multipole update                   :        0.007 s           0.006 s
  | Hartree multipole summation                :        0.057 s           0.058 s
  | Integration                                :        0.071 s           0.071 s
  | Fock matrix evaluation                     :        0.000 s           0.000 s
  | Solution of K.-S. eqns.                    :        0.000 s           0.000 s
  | Total energy evaluation                    :        0.000 s           0.000 s

  Partial memory accounting:
  | Current value for overall tracked memory usage on task 0  :           0.015 MB
  | Peak value for overall tracked memory usage on task 0     :           0.197 MB after allocating gradient_basis_wave
  | Largest tracked array allocation on task 0 so far         :           0.136 MB  when allocating gradient_basis_wave
  Note:  These values currently only include a subset of arrays which are explicitly tracked.
  The "true" memory usage will be greater.
------------------------------------------------------------

------------------------------------------------------------
          Begin self-consistency iteration #    6

  Date     :  20230425, Time     :  133605.849
------------------------------------------------------------
  Evaluating new KS density.
  Integration grid: deviation in total charge (<rho> - N_e) =  -1.065814E-14
  Pulay mixing of updated and previous charge densities.

  Evaluating partitioned Hartree potential by multipole expansion.
  | Analytical far-field extrapolation by fixed multipoles:
  | Hartree multipole sum: apparent total charge =  -0.227110E-06
  Summing up the Hartree potential.
  Time summed over all CPUs for potential: real work        0.435 s, elapsed        0.454 s
  | RMS charge density error from multipole expansion :   0.518364E-02

  Integrating Hamiltonian matrix: batch-based integration.
  Time summed over all CPUs for integration: real work        0.543 s, elapsed        0.566 s
  Evaluating the exchange matrix ... 

  Updating Kohn-Sham eigenvalues and eigenvectors using ELSI and the ELPA eigensolver.
  Finished Cholesky decomposition
  | Time :     0.000 s
  Finished transformation to standard eigenproblem
  | Time :     0.000 s
  Starting LAPACK eigensolver
  Finished solving standard eigenproblem
  | Time :     0.000 s
  Finished back-transformation of eigenvectors
  | Time :     0.000 s

  Obtaining occupation numbers and chemical potential using ELSI.
  | Chemical potential (Fermi level):    -0.86587894eV
  Highest occupied state (VBM) at     -6.87463187 eV
  | Occupation number:      2.00000000

  Lowest unoccupied state (CBM) at     2.07068989 eV
  | Occupation number:      0.00000000

  Overall HOMO-LUMO gap:      8.94532176 eV.

  Total energy components:
  | Sum of eigenvalues            :         -32.77840083 Ha        -891.94566824 eV
  | XC energy correction          :          -4.13150254 Ha        -112.42390406 eV
  | XC potential correction       :           7.78420988 Ha         211.81912819 eV
  | Free-atom electrostatic energy:         -25.12626073 Ha        -683.72034178 eV
  | Hartree energy correction     :          -2.23247445 Ha         -60.74872068 eV
  | Entropy correction            :           0.00000000 Ha           0.00000000 eV
  | ---------------------------
  | Total energy                  :         -56.48442866 Ha       -1537.01950657 eV
  | Total energy, T -> 0          :         -56.48442866 Ha       -1537.01950657 eV  <-- do not rely on this value for anything but (periodic) metals
  | Electronic free energy        :         -56.48442866 Ha       -1537.01950657 eV

  Derived energy quantities:
  | Kinetic energy                :          67.60866511 Ha        1839.72538194 eV
  | Electrostatic energy          :        -104.60670333 Ha       -2846.49322553 eV
  | Energy correction for multipole
  | error in Hartree potential    :          -0.00526941 Ha          -0.14338788 eV
  | Sum of eigenvalues per atom                           :        -222.98641706 eV
  | Total energy (T->0) per atom                          :        -384.25487664 eV  <-- do not rely on this value for anything but (periodic) metals
  | Electronic free energy per atom                       :        -384.25487664 eV

  Self-consistency convergence accuracy:
  | Change of charge density      :  0.1435E-03
  | Change of sum of eigenvalues  : -0.2442E-01 eV
  | Change of total energy        :  0.7601E-03 eV

  End self-consistency iteration #     6       :  max(cpu_time)    wall_clock(cpu1)
  | Time for this iteration                    :        0.189 s           0.188 s
  | Charge density update                      :        0.045 s           0.044 s
  | Density mixing                             :        0.008 s           0.008 s
  | Hartree multipole update                   :        0.007 s           0.007 s
  | Hartree multipole summation                :        0.058 s           0.058 s
  | Integration                                :        0.071 s           0.071 s
  | Fock matrix evaluation                     :        0.000 s           0.000 s
  | Solution of K.-S. eqns.                    :        0.000 s           0.000 s
  | Total energy evaluation                    :        0.000 s           0.000 s

  Partial memory accounting:
  | Current value for overall tracked memory usage on task 0  :           0.015 MB
  | Peak value for overall tracked memory usage on task 0     :           0.197 MB after allocating gradient_basis_wave
  | Largest tracked array allocation on task 0 so far         :           0.136 MB  when allocating gradient_basis_wave
  Note:  These values currently only include a subset of arrays which are explicitly tracked.
  The "true" memory usage will be greater.
------------------------------------------------------------

------------------------------------------------------------
          Begin self-consistency iteration #    7

  Date     :  20230425, Time     :  133606.038
------------------------------------------------------------
  Evaluating new KS density.
  Integration grid: deviation in total charge (<rho> - N_e) =   3.552714E-15
  Pulay mixing of updated and previous charge densities.

  Evaluating partitioned Hartree potential by multipole expansion.
  | Analytical far-field extrapolation by fixed multipoles:
  | Hartree multipole sum: apparent total charge =  -0.227113E-06
  Summing up the Hartree potential.
  Time summed over all CPUs for potential: real work        0.437 s, elapsed        0.455 s
  | RMS charge density error from multipole expansion :   0.518360E-02

  Integrating Hamiltonian matrix: batch-based integration.
  Time summed over all CPUs for integration: real work        0.542 s, elapsed        0.567 s
  Evaluating the exchange matrix ... 

  Updating Kohn-Sham eigenvalues and eigenvectors using ELSI and the ELPA eigensolver.
  Finished Cholesky decomposition
  | Time :     0.000 s
  Finished transformation to standard eigenproblem
  | Time :     0.000 s
  Starting LAPACK eigensolver
  Finished solving standard eigenproblem
  | Time :     0.000 s
  Finished back-transformation of eigenvectors
  | Time :     0.000 s

  Obtaining occupation numbers and chemical potential using ELSI.
  | Chemical potential (Fermi level):    -0.86574332eV
  Highest occupied state (VBM) at     -6.87461890 eV
  | Occupation number:      2.00000000

  Lowest unoccupied state (CBM) at     2.07063169 eV
  | Occupation number:      0.00000000

  Overall HOMO-LUMO gap:      8.94525059 eV.

  Total energy components:
  | Sum of eigenvalues            :         -32.77834837 Ha        -891.94424088 eV
  | XC energy correction          :          -4.13150590 Ha        -112.42399558 eV
  | XC potential correction       :           7.78422028 Ha         211.81941100 eV
  | Free-atom electrostatic energy:         -25.12626073 Ha        -683.72034178 eV
  | Hartree energy correction     :          -2.23252657 Ha         -60.75013901 eV
  | Entropy correction            :           0.00000000 Ha           0.00000000 eV
  | ---------------------------
  | Total energy                  :         -56.48442130 Ha       -1537.01930624 eV
  | Total energy, T -> 0          :         -56.48442130 Ha       -1537.01930624 eV  <-- do not rely on this value for anything but (periodic) metals
  | Electronic free energy        :         -56.48442130 Ha       -1537.01930624 eV

  Derived energy quantities:
  | Kinetic energy                :          67.60892320 Ha        1839.73240477 eV
  | Electrostatic energy          :        -104.60691204 Ha       -2846.49890500 eV
  | Energy correction for multipole
  | error in Hartree potential    :          -0.00527053 Ha          -0.14341838 eV
  | Sum of eigenvalues per atom                           :        -222.98606022 eV
  | Total energy (T->0) per atom                          :        -384.25482656 eV  <-- do not rely on this value for anything but (periodic) metals
  | Electronic free energy per atom                       :        -384.25482656 eV

  Self-consistency convergence accuracy:
  | Change of charge density      :  0.4183E-04
  | Change of sum of eigenvalues  :  0.1427E-02 eV
  | Change of total energy        :  0.2003E-03 eV

  End self-consistency iteration #     7       :  max(cpu_time)    wall_clock(cpu1)
  | Time for this iteration                    :        0.190 s           0.190 s
  | Charge density update                      :        0.045 s           0.044 s
  | Density mixing                             :        0.009 s           0.009 s
  | Hartree multipole update                   :        0.007 s           0.007 s
  | Hartree multipole summation                :        0.057 s           0.058 s
  | Integration                                :        0.071 s           0.071 s
  | Fock matrix evaluation                     :        0.000 s           0.000 s
  | Solution of K.-S. eqns.                    :        0.000 s           0.000 s
  | Total energy evaluation                    :        0.000 s           0.000 s

  Partial memory accounting:
  | Current value for overall tracked memory usage on task 0  :           0.015 MB
  | Peak value for overall tracked memory usage on task 0     :           0.197 MB after allocating gradient_basis_wave
  | Largest tracked array allocation on task 0 so far         :           0.136 MB  when allocating gradient_basis_wave
  Note:  These values currently only include a subset of arrays which are explicitly tracked.
  The "true" memory usage will be greater.
------------------------------------------------------------

------------------------------------------------------------
          Begin self-consistency iteration #    8

  Date     :  20230425, Time     :  133606.232
------------------------------------------------------------
  Evaluating new KS density.
  Integration grid: deviation in total charge (<rho> - N_e) =  -5.329071E-15
  Pulay mixing of updated and previous charge densities.

  Evaluating partitioned Hartree potential by multipole expansion.
  | Analytical far-field extrapolation by fixed multipoles:
  | Hartree multipole sum: apparent total charge =  -0.227113E-06
  Summing up the Hartree potential.
  Time summed over all CPUs for potential: real work        0.441 s, elapsed        0.453 s
  | RMS charge density error from multipole expansion :   0.518359E-02

  Integrating Hamiltonian matrix: batch-based integration.
  Time summed over all CPUs for integration: real work        0.542 s, elapsed        0.556 s
  Evaluating the exchange matrix ... 

  Updating Kohn-Sham eigenvalues and eigenvectors using ELSI and the ELPA eigensolver.
  Finished Cholesky decomposition
  | Time :     0.000 s
  Finished transformation to standard eigenproblem
  | Time :     0.001 s
  Starting LAPACK eigensolver
  Finished solving standard eigenproblem
  | Time :     0.000 s
  Finished back-transformation of eigenvectors
  | Time :     0.000 s

  Obtaining occupation numbers and chemical potential using ELSI.
  | Chemical potential (Fermi level):    -0.86607080eV
  Highest occupied state (VBM) at     -6.87487360 eV
  | Occupation number:      2.00000000

  Lowest unoccupied state (CBM) at     2.07054758 eV
  | Occupation number:      0.00000000

  Overall HOMO-LUMO gap:      8.94542118 eV.

  Total energy components:
  | Sum of eigenvalues            :         -32.77847032 Ha        -891.94755917 eV
  | XC energy correction          :          -4.13149840 Ha        -112.42379160 eV
  | XC potential correction       :           7.78420465 Ha         211.81898586 eV
  | Free-atom electrostatic energy:         -25.12626073 Ha        -683.72034178 eV
  | Hartree energy correction     :          -2.23239597 Ha         -60.74658497 eV
  | Entropy correction            :           0.00000000 Ha           0.00000000 eV
  | ---------------------------
  | Total energy                  :         -56.48442076 Ha       -1537.01929166 eV
  | Total energy, T -> 0          :         -56.48442076 Ha       -1537.01929166 eV  <-- do not rely on this value for anything but (periodic) metals
  | Electronic free energy        :         -56.48442076 Ha       -1537.01929166 eV

  Derived energy quantities:
  | Kinetic energy                :          67.60881732 Ha        1839.72952357 eV
  | Electrostatic energy          :        -104.60684873 Ha       -2846.49718220 eV
  | Energy correction for multipole
  | error in Hartree potential    :          -0.00527038 Ha          -0.14341446 eV
  | Sum of eigenvalues per atom                           :        -222.98688979 eV
  | Total energy (T->0) per atom                          :        -384.25482292 eV  <-- do not rely on this value for anything but (periodic) metals
  | Electronic free energy per atom                       :        -384.25482292 eV

  Self-consistency convergence accuracy:
  | Change of charge density      :  0.1452E-04
  | Change of sum of eigenvalues  : -0.3318E-02 eV
  | Change of total energy        :  0.1458E-04 eV

  End self-consistency iteration #     8       :  max(cpu_time)    wall_clock(cpu1)
  | Time for this iteration                    :        0.190 s           0.190 s
  | Charge density update                      :        0.045 s           0.044 s
  | Density mixing                             :        0.010 s           0.011 s
  | Hartree multipole update                   :        0.007 s           0.007 s
  | Hartree multipole summation                :        0.057 s           0.057 s
  | Integration                                :        0.070 s           0.070 s
  | Fock matrix evaluation                     :        0.000 s           0.000 s
  | Solution of K.-S. eqns.                    :        0.000 s           0.001 s
  | Total energy evaluation                    :        0.000 s           0.000 s

  Partial memory accounting:
  | Current value for overall tracked memory usage on task 0  :           0.015 MB
  | Peak value for overall tracked memory usage on task 0     :           0.197 MB after allocating gradient_basis_wave
[...]
  Highest occupied state (VBM) at     -6.87476892 eV
  | Occupation number:      2.00000000

  Lowest unoccupied state (CBM) at     2.07058407 eV
  | Occupation number:      0.00000000

  Overall HOMO-LUMO gap:      8.94535299 eV.

  Self-consistency cycle converged.

  End self-consistency iteration #    12       :  max(cpu_time)    wall_clock(cpu1)
  | Time for this iteration                    :        0.193 s           0.194 s
  | Charge density update                      :        0.045 s           0.044 s
  | Density mixing                             :        0.013 s           0.014 s
  | Hartree multipole update                   :        0.007 s           0.007 s
  | Hartree multipole summation                :        0.057 s           0.057 s
  | Integration                                :        0.070 s           0.071 s
  | Fock matrix evaluation                     :        0.000 s           0.000 s
  | Solution of K.-S. eqns.                    :        0.000 s           0.000 s
  | Total energy evaluation                    :        0.000 s           0.000 s

  Partial memory accounting:
  | Current value for overall tracked memory usage on task 0  :           0.015 MB
  | Peak value for overall tracked memory usage on task 0     :           0.197 MB after allocating gradient_basis_wave
  | Largest tracked array allocation on task 0 so far         :           0.136 MB  when allocating gradient_basis_wave
  Note:  These values currently only include a subset of arrays which are explicitly tracked.
  The "true" memory usage will be greater.
------------------------------------------------------------
  |--------------------------------------------------------------------------
  | Final ELSI Output
  |--------------------------------------------------------------------------
  | ELSI Versioning Information
  |   Date stamp                   :                                         
  |   Git commit (abbrev.)         :                                 367ff8b 
  |   Git commit modified?         :                                     TRUE
  | 
  | Physical Properties
  |   Number of electrons          :                           0.10000000E+02
  |   Number of states             :                                       29
  | 
  | Matrix Properties
  |   Matrix format                :                              BLACS_DENSE
  |   Number of basis functions    :                                       29
  | 
  | Computational Details
  |   Parallel mode                :                              SINGLE_PROC
  |   Number of MPI tasks          :                                        1
  |   Solver requested             :                                     ELPA
  |   Was ELSI changed mid-run?    :                                     TRUE
  |   Number of ELSI calls         :                                       13
  | 
  | Timings
  |   Solver timings
  |      #  wall_clock   [s]     elsi_tag             user_tag
  |      1         0.017         LAPACK_REAL          FHI-AIMS_SCF_INIT
  |      2         0.000         LAPACK_REAL          FHI-AIMS_SCF
  |      3         0.000         LAPACK_REAL          FHI-AIMS_SCF
  |                0.017         MAX                  N/A
  |                0.000         MIN                  N/A
  |                0.001         AVERAGE              N/A
  |--------------------------------------------------------------------------
  | ELSI Project (c)  elsi-interchange.org
  |--------------------------------------------------------------------------

  Energy and forces in a compact form:
  | Total energy uncorrected      :         -0.153701928239209E+04 eV
  | Total energy corrected        :         -0.153701928239209E+04 eV  <-- do not rely on this value for anything but (periodic) metals
  | Electronic free energy        :         -0.153701928239209E+04 eV

  ---------------------------------------- 
  Double-Hybrid Density Functional is used 
  ---------------------------------------- 
  E_total(PBE0)         :       -56.484420423 Ha          -1537.019282392 eV
  E_xc(PBE0)            :        -4.131500998 Ha           -112.423862225 eV
  E_x_hf(PBE0)          :         1.919363446 Ha             52.228536736 eV
  E_xc(ZRPS/DFT)        :        -4.060603874 Ha           -110.494653310 eV
  E_total(ZRPS/DFT)     :       -52.574796406 Ha          -1430.633000006 eV
  ------------------------------------ 
  ------------------------------------ 
  Start decomposition of the XC Energy 
  ------------------------------------ 
  X and C from original XC functional choice 
  Hartree-Fock Energy :          1.919363446 Ha             52.228536736 eV
  X Energy            :         -3.811170071 Ha           -103.707214189 eV
  C Energy            :         -0.320330928 Ha             -8.716648036 eV
  Total XC Energy     :         -4.131500998 Ha           -112.423862225 eV
  ------------------------------------ 
  LDA X and C from self-consistent density 
  X Energy LDA        :         -6.922275433 Ha           -188.364698428 eV
  C Energy LDA        :         -0.625319561 Ha            -17.015811004 eV
  ------------------------------------ 
  End decomposition of the XC Energy 
  ------------------------------------ 

------------------------------------------------------------
---------------------------------------------
---------------------------------------------
 | PT2 calculation starts ...
---------------------------------------------
---------------------------------------------

  | Note : Resolution of identity applied 
  | Note : Non spin-polarized system 
---------------------------------------------
  | Homo level                                        5
  | Lumo level                                        6
  | Total Number of states                           29
  | Number of k-points                                1
  | Homo-Lumo Gap                            0.32873568 Ha          8.94535299 eV
---------------------------------------------
  First valence state in the frozen-core algorithm :           1
  |                             Main-group    Transition-metal
  | Atom number     ::                   4                   0
  | n_frozen_shell  ::                   0                   0
  Frozen core number for post-SCF calculation          :           0
  The ovlp_3KS matrix takes another      0 MiB x      8 procs =       0.000 GiB.

 
  Starts to calculate the exchange energy ...

---------------------------------------------
| Sum of correlation terms 
---------------------------------------------
  Screened coupling is invoked with    1.000000    1.000000    0.000000
  Initial energy  0.681E-03 0.000E+00 0.681E-03, generated energy  0.681E-03 0.000E+00 0.681E-03
  Screened coupling is invoked with    1.000000    1.000000    0.000000
  Initial energy  0.194E-03 0.237E-04 0.170E-03, generated energy  0.194E-03 0.237E-04 0.170E-03
  Screened coupling is invoked with    1.000000    1.000000    0.000000
  Initial energy  0.291E-03 0.149E-03 0.142E-03, generated energy  0.291E-03 0.149E-03 0.142E-03
  Screened coupling is invoked with    1.000000    1.000000    0.000000
  Initial energy  0.291E-03 0.149E-03 0.142E-03, generated energy  0.291E-03 0.149E-03 0.142E-03
  Screened coupling is invoked with    1.000000    1.000000    0.000000
  Initial energy  0.371E-03 0.176E-03 0.195E-03, generated energy  0.371E-03 0.176E-03 0.195E-03
  Screened coupling is invoked with    1.000000    1.000000    0.000000
  Initial energy  0.115E-01 0.000E+00 0.115E-01, generated energy  0.115E-01 0.000E+00 0.115E-01
  Screened coupling is invoked with    1.000000    1.000000    0.000000
  Initial energy  0.116E-01 0.234E-02 0.922E-02, generated energy  0.116E-01 0.234E-02 0.922E-02
  The   1th iteration yields    0.116E-01   0.234E-02   0.922E-02 with the energy change of       0.00000000
  Screened coupling is invoked with    1.000000    1.000000    0.000000
  Initial energy  0.116E-01 0.234E-02 0.922E-02, generated energy  0.116E-01 0.234E-02 0.922E-02
  The   1th iteration yields    0.116E-01   0.234E-02   0.922E-02 with the energy change of       0.00000000
  Screened coupling is invoked with    1.000000    1.000000    0.000000
  Initial energy  0.922E-02 0.239E-02 0.684E-02, generated energy  0.922E-02 0.239E-02 0.684E-02
  The   1th iteration yields    0.922E-02   0.239E-02   0.684E-02 with the energy change of       0.00000000
  Screened coupling is invoked with    1.000000    1.000000    0.000000
  Initial energy  0.250E-01 0.000E+00 0.250E-01, generated energy  0.250E-01 0.000E+00 0.250E-01
  The   1th iteration yields    0.250E-01   0.000E+00   0.250E-01 with the energy change of       0.00000000
  Screened coupling is invoked with    1.000000    1.000000    0.000000
  Initial energy  0.171E-01 0.654E-02 0.106E-01, generated energy  0.171E-01 0.654E-02 0.106E-01
  The   1th iteration yields    0.171E-01   0.654E-02   0.106E-01 with the energy change of       0.00000000
  Screened coupling is invoked with    1.000000    1.000000    0.000000
  Initial energy  0.174E-01 0.761E-02 0.978E-02, generated energy  0.174E-01 0.761E-02 0.978E-02
  The   1th iteration yields    0.174E-01   0.761E-02   0.978E-02 with the energy change of       0.00000000
  Screened coupling is invoked with    1.000000    1.000000    0.000000
  Initial energy  0.250E-01 0.000E+00 0.250E-01, generated energy  0.250E-01 0.000E+00 0.250E-01
  The   1th iteration yields    0.250E-01   0.000E+00   0.250E-01 with the energy change of       0.00000000
  Screened coupling is invoked with    1.000000    1.000000    0.000000
  Initial energy  0.174E-01 0.761E-02 0.978E-02, generated energy  0.174E-01 0.761E-02 0.978E-02
  The   1th iteration yields    0.174E-01   0.761E-02   0.978E-02 with the energy change of       0.00000000
  Screened coupling is invoked with    1.000000    1.000000    0.000000
  Initial energy  0.231E-01 0.000E+00 0.231E-01, generated energy  0.230E-01 0.000E+00 0.230E-01
  The   1th iteration yields    0.230E-01   0.000E+00   0.230E-01 with the energy change of       0.00000000
---------------------------------------------
 
 
 
          ---------------------------------------------------
          | sBGE2 calculation comes to finish ...  
 
          ---------------------------------------------------
          | Total time for calculating sBGE2 correction              :        0.003 s

---------------------------------------------
  | DHDF/DFT Energy                :        -52.57479641 Ha      -1430.63300001 eV
  | Exx contribution               :         -3.83872690 Ha       -104.45707357 eV
  | PT2 contribution               :         -0.04933468 Ha         -1.34246498 eV
  | sBGE2 contribution             :         -0.04932734 Ha         -1.34226533 eV
---------------------------------------------
  | Total ZRPS energy              :        -56.46285065 Ha      -1536.43233891 eV
  | Total ZRPS(DH) energy          :        -56.46285798 Ha      -1536.43253856 eV
---------------------------------------------

------------------------------------------------------------------------------
  Final output of selected total energy values:

  The following output summarizes some interesting total energy values
  at the end of a run (AFTER all relaxation, molecular dynamics, etc.).

  | Total energy of the DFT / Hartree-Fock s.c.f. calculation      :          -1430.633000006 eV
  | Final zero-broadening corrected energy (caution - metals only) :          -1430.633000006 eV
  | Total energy after the post-s.c.f. correlation calculation     :          -1432.374343113 eV
  | For reference only, the value of 1 Hartree used in FHI-aims is :             27.211384500 eV

  Before relying on these values, please be sure to understand exactly which
  total energy value is referred to by a given number. Different objects may
  all carry the same name 'total energy'. Definitions:

  Total energy of the DFT / Hartree-Fock s.c.f. calculation:
  | Note that this energy does not include ANY quantities calculated after the
  | s.c.f. cycle, in particular not ANY RPA, MP2, etc. many-body perturbation terms.

  Final zero-broadening corrected energy:
  | For metallic systems only, a broadening of the occupation numbers at the Fermi
  | level can be extrapolated back to zero broadening by an electron-gas inspired
  | formula. For all systems that are not real metals, this value can be
  | meaningless and should be avoided.

  Total energy of the post-s.c.f. correlation calculation        :
  | Resolution of identity used for the 2-electron Coulomb operator:          RI_V
  | The actual meaning of this energy depends on the setting for the 'total_energy_method'
  | keyword (MP2, RPA, rPT2, etc). If not sure, compare to the results listed above.

------------------------------------------------------------------------------
  Methods described in the following list of references were used in this FHI-aims run.
  If you publish the results, please make sure to cite these reference if they apply.
  FHI-aims is an academic code, and for our developers (often, Ph.D. students
  and postdocs), scientific credit in the community is essential.
  Thank you for helping us!

  For any use of FHI-aims, please cite:

    Volker Blum, Ralf Gehrke, Felix Hanke, Paula Havu, Ville Havu,
    Xinguo Ren, Karsten Reuter, and Matthias Scheffler
    'Ab initio molecular simulations with numeric atom-centered orbitals'
    Computer Physics Communications 180, 2175-2196 (2009)
    http://dx.doi.org/10.1016/j.cpc.2009.06.022


  For Hartree-Fock, hybrid functionals, or many-body perturbation theory used in your run, please cite:

    Xinguo Ren, Patrick Rinke, Volker Blum, Juergen Wieferink, Alex Tkatchenko,
    Andrea Sanfilippo, Karsten Reuter, and Matthias Scheffler,
    'Resolution-of-identity approach to Hartree-Fock, hybrid density functionals,
    RPA, MP2, and GW with numeric atom-centered orbital basis functions'
    New Journal of Physics 14, 053020 (2012).
    http://dx.doi.org/10.1088/1367-2630/14/5/053020


  The scalable eigensolver library ELPA was used in your run.
  ELPA is essential especially for large systems on hundreds or thousands of CPUs.
  For ELPA, please cite:

    Andreas Marek, Volker Blum, Rainer Johanni, Ville Havu, Bruno Lang,
    Thomas Auckenthaler, Alexander Heinecke, Hans-Joachim Bungartz, and Hermann Lederer,
    'The ELPA Library - Scalable Parallel Eigenvalue Solutions
    for Electronic Structure Theory and Computational Science'
    The Journal of Physics: Condensed Matter 26, 213201 (2014).
    http://dx.doi.org/10.1088/0953-8984/26/21/213201


  The ELSI infrastructure was used in your run to solve the Kohn-Sham electronic structure.
  Please check out http://elsi-interchange.org to learn more.
  If scalability is important for your project, please acknowledge ELSI by citing:

    V. W-z. Yu, F. Corsetti, A. Garcia, W. P. Huhn, M. Jacquelin, W. Jia,
    B. Lange, L. Lin, J. Lu, W. Mi, A. Seifitokaldani, A. Vazquez-Mayagoitia,
    C. Yang, H. Yang, and V. Blum
    'ELSI: A unified software interface for Kohn-Sham electronic structure solvers'
    Computer Physics Communications 222, 267-285 (2018).
    http://dx.doi.org/10.1016/j.cpc.2017.09.007


  For the real-space grid partitioning and parallelization used in this calculation, please cite:

    Ville Havu, Volker Blum, Paula Havu, and Matthias Scheffler,
    'Efficient O(N) integration for all-electron electronic structure calculation'
    'using numerically tabulated basis functions'
    Journal of Computational Physics 228, 8367-8379 (2009).
    http://dx.doi.org/10.1016/j.jcp.2009.08.008

  Of course, there are many other important community references, e.g., those cited in the
  above references. Our list is limited to references that describe implementations in the
  FHI-aims code. The reason is purely practical (length of this list) - please credit others as well.

 * Warning - angular integration grids had to be adjusted for use with RI_method 'V'.
 * Background: You are using an electronic structure method that requires RI_method 'V'
 * for the resolution of identity of the Coulomb operator. (See Ren et al.,
 * New J. Phys 2012 for details.) This method requires three-center integrations
 * to be carried out on FHI-aims' normal angular and radial integration grids.
 * (See FHI-aims CPC Blum et al. 2009, p. 2183 for grid details and references.)
 * One of the angular grids specified in your control.in file was not large
 * enough for the maximal angular momenta of orbital and product basis functions
 * for its species.
 * This can lead to atomic total energy errors which cancel in energy differences.
 * Effective Sep 22, 2014, we have changed the default behavior of the code to
 * simply 'upgrade' the angular grids internally to a safe setting in this case.
 * Please be sure to NOT mix total energies from before and after the change.

------------------------------------------------------------
          Leaving FHI-aims.
          Date     :  20230425, Time     :  133607.249

          Computational steps:
          | Number of self-consistency cycles          :           12
          | Number of SCF (re)initializations          :            1

          Detailed time accounting                     :  max(cpu_time)    wall_clock(cpu1)
          | Total time                                 :        3.773 s           3.896 s
          | Preparation time                           :        0.122 s           0.157 s
          | Boundary condition initalization           :        0.000 s           0.000 s
          | Grid partitioning                          :        0.139 s           0.151 s
          | Preloading free-atom quantities on grid    :        0.035 s           0.035 s
          | Free-atom superposition energy             :        0.032 s           0.033 s
          | Total time for integrations                :        0.960 s           0.965 s
          | Product basis setup: Total time            :        0.831 s           0.833 s
          | Product basis: | 3-center integrations     :(       0.739 s)  (       0.743 s)
          | Product basis: | 2-center integrations     :(       0.052 s)  (       0.052 s)
          | Product basis: | 2-center linear algebra   :(       0.009 s)  (       0.009 s)
          | Product basis: | 3-center x 2-center       :(       0.004 s)  (       0.004 s)
          | Total time evaluating exchange matrix      :        0.003 s           0.002 s
          | Transforming ovlp_3fn to ovlp_3KS          :        0.000 s           0.001 s
          | Total time for solution of K.-S. equations :        0.007 s           0.020 s
          | Total time for density update              :        0.541 s           0.538 s
          | Total time for mixing                      :        0.105 s           0.108 s
          | Total time for Hartree multipole update    :        0.082 s           0.082 s
          | Total time for Hartree multipole sum       :        0.692 s           0.693 s
          | Total time for total energy evaluation     :        0.001 s           0.002 s

          Partial memory accounting:
          | Residual value for overall tracked memory usage across tasks :           0.000 MB (should be 0.000 MB)
          | Peak values for overall tracked memory usage (after allocating gradient_basis_wave):
          |   Minimum:        0.197 MB (on task 1)
          |   Maximum:        0.197 MB (on task 1)
          |   Average:        0.197 MB
          | Largest tracked array allocation (gradient_basis_wave):
          |   Minimum:        0.136 MB (on task 1)
          |   Maximum:        0.136 MB (on task 1)
          |   Average:        0.136 MB
          Note:  These values currently only include a subset of arrays which are explicitly tracked.
          The "true" memory usage will be greater.

          Have a nice day.
------------------------------------------------------------
