#INFO: **** input file is /home/igor/Documents/Package-Pool/rest_workspace/rest/examples/RIHF-NH3-dimer/ri3fn_from_pyscf.py ****
#!/usr/bin/env python3                                                                                            
import pyscf
import numpy
from pyscf import gto, scf, ci,df,lib
import scipy
from time import ctime, time
lib.num_threads(6)
TimeStart = time()
mol = gto.Mole(
        atom='''
          N       -2.1988391019      1.8973746268      0.0000000000
          H       -1.1788391019      1.8973746268      0.0000000000
          H       -2.5388353987      1.0925460144     -0.5263586446
          H       -2.5388400276      2.7556271745     -0.4338224694
          N       -4.1988391019      1.8973746268      0.0000000000
          H       -3.1788391019      1.8973746268      0.0000000000
          H       -4.5388353987      1.0925460144     -0.5263586446
          H       -4.5388400276      2.7556271745     -0.4338224694''',
         charge=1,spin=1,basis='aug-cc-pv5z',verbose=4
      ).build()
mf = scf.UHF(mol).density_fit(auxbasis="def2-tzvp-jkfit")
#mf.init_guess = '1e'
mf.diis = 'diis'
print("Total energy:",mf.kernel())
print("Total job time: %10.2f(wall)" %(time()-TimeStart))

#INFO: ******************** input file end ********************


System: uname_result(system='Linux', node='igor-ThinkPad-T16-Gen-1', release='5.19.0-41-generic', version='#42~22.04.1-Ubuntu SMP PREEMPT_DYNAMIC Tue Apr 18 17:40:00 UTC 2', machine='x86_64')  Threads 6
Python 3.9.13 (main, Aug 25 2022, 23:26:10) 
[GCC 11.2.0]
numpy 1.21.5  scipy 1.9.1
Date: Sun May  7 14:10:05 2023
PySCF version 2.1.1
PySCF path  /home/igor/Data/opt/anaconda3/lib/python3.9/site-packages/pyscf

[CONFIG] conf_file None
[INPUT] verbose = 4
[INPUT] num. atoms = 8
[INPUT] num. electrons = 19
[INPUT] charge = 1
[INPUT] spin (= nelec alpha-beta = 2S) = 1
[INPUT] symmetry False subgroup None
[INPUT] Mole.unit = angstrom
[INPUT] Symbol           X                Y                Z      unit          X                Y                Z       unit  Magmom
[INPUT]  1 N     -2.198839101900   1.897374626800   0.000000000000 AA   -4.155203694576   3.585518400351   0.000000000000 Bohr   0.0
[INPUT]  2 H     -1.178839101900   1.897374626800   0.000000000000 AA   -2.227683047519   3.585518400351   0.000000000000 Bohr   0.0
[INPUT]  3 H     -2.538835398700   1.092546014400  -0.526358644600 AA   -4.797703578894   2.064612745701  -0.994673681591 Bohr   0.0
[INPUT]  4 H     -2.538840027600   2.755627174500  -0.433822469400 AA   -4.797712326247   5.207380661214  -0.819805653849 Bohr   0.0
[INPUT]  5 N     -4.198839101900   1.897374626800   0.000000000000 AA   -7.934655943706   3.585518400351   0.000000000000 Bohr   0.0
[INPUT]  6 H     -3.178839101900   1.897374626800   0.000000000000 AA   -6.007135296649   3.585518400351   0.000000000000 Bohr   0.0
[INPUT]  7 H     -4.538835398700   1.092546014400  -0.526358644600 AA   -8.577155828024   2.064612745701  -0.994673681591 Bohr   0.0
[INPUT]  8 H     -4.538840027600   2.755627174500  -0.433822469400 AA   -8.577164575377   5.207380661214  -0.819805653849 Bohr   0.0

nuclear repulsion = 50.8766042153668
number of shells = 172
number of NR pGTOs = 786
number of NR cGTOs = 734
basis = aug-cc-pv5z
ecp = {}
CPU time:         0.28


******** <class 'pyscf.df.df_jk.density_fit.<locals>.DensityFitting'> ********
method = DensityFitting-UHF
initial guess = minao
damping factor = 0
level_shift factor = 0
DIIS = <class 'pyscf.scf.diis.CDIIS'>
diis_start_cycle = 1
diis_space = 8
SCF conv_tol = 1e-09
SCF conv_tol_grad = None
SCF max_cycles = 50
direct_scf = True
direct_scf_tol = 1e-13
chkfile to save SCF result = /home/igor/Documents/Package-Pool/rest_workspace/rest/examples/RIHF-NH3-dimer/tmp8vx62mzm
max_memory 4000 MB (current use 99 MB)
number electrons alpha = 10  beta = 9
Set gradient conv threshold to 3.16228e-05
******** <class 'pyscf.df.df.DF'> ********
auxbasis = def2-tzvp-jkfit
max_memory = 4000
_cderi_to_save = /home/igor/Documents/Package-Pool/rest_workspace/rest/examples/RIHF-NH3-dimer/tmpqcrevmty
init E= -112.863130258638
  alpha nocc = 10  HOMO = -0.272272194279284  LUMO = 0.0105707449668378
  beta  nocc = 9  HOMO = -0.299853817500733  LUMO = -0.272272194279281

WARN: system HOMO -0.272272194279281 >= system LUMO -0.272272194279281

cycle= 1 E= -111.847696516931  delta_E= 1.02  |g|= 0.331  |ddm|= 1.02
  alpha nocc = 10  HOMO = -0.77869976253606  LUMO = -0.153997427758325
  beta  nocc = 9  HOMO = -0.724945402760181  LUMO = -0.315858568579539
cycle= 2 E= -111.915835061428  delta_E= -0.0681  |g|= 0.13  |ddm|= 0.29
  alpha nocc = 10  HOMO = -0.712365523398354  LUMO = -0.134185551382222
  beta  nocc = 9  HOMO = -0.663855393067284  LUMO = -0.227654975593409
cycle= 3 E= -111.925632473627  delta_E= -0.0098  |g|= 0.0489  |ddm|= 0.0893
  alpha nocc = 10  HOMO = -0.722569979540707  LUMO = -0.133362099587376
  beta  nocc = 9  HOMO = -0.680147143498585  LUMO = -0.220341296782548
cycle= 4 E= -111.930070654473  delta_E= -0.00444  |g|= 0.0329  |ddm|= 0.0555
  alpha nocc = 10  HOMO = -0.715605762999797  LUMO = -0.13335695423222
  beta  nocc = 9  HOMO = -0.679187052478692  LUMO = -0.21250729597957
cycle= 5 E= -111.932930829074  delta_E= -0.00286  |g|= 0.0276  |ddm|= 0.039
  alpha nocc = 10  HOMO = -0.71261657734993  LUMO = -0.133135490811772
  beta  nocc = 9  HOMO = -0.683952910091497  LUMO = -0.206915094504146
cycle= 6 E= -111.93627529606  delta_E= -0.00334  |g|= 0.0238  |ddm|= 0.0509
  alpha nocc = 10  HOMO = -0.70374485466983  LUMO = -0.133012460224611
  beta  nocc = 9  HOMO = -0.69115932895866  LUMO = -0.1980020601753
cycle= 7 E= -111.940784167894  delta_E= -0.00451  |g|= 0.0165  |ddm|= 0.0858
  alpha nocc = 10  HOMO = -0.700403033454865  LUMO = -0.132874577670755
  beta  nocc = 9  HOMO = -0.689488785987563  LUMO = -0.19531093310013
cycle= 8 E= -111.942643956669  delta_E= -0.00186  |g|= 0.00995  |ddm|= 0.0549
  alpha nocc = 10  HOMO = -0.699715387805709  LUMO = -0.132851454563971
  beta  nocc = 9  HOMO = -0.68561607162631  LUMO = -0.19974004469382
cycle= 9 E= -111.943386240335  delta_E= -0.000742  |g|= 0.00374  |ddm|= 0.0437
  alpha nocc = 10  HOMO = -0.69890983961099  LUMO = -0.132823291395539
  beta  nocc = 9  HOMO = -0.688201614355842  LUMO = -0.195334389943344
cycle= 10 E= -111.94347815145  delta_E= -9.19e-05  |g|= 0.00267  |ddm|= 0.0229
  alpha nocc = 10  HOMO = -0.700186312165724  LUMO = -0.132806398356262
  beta  nocc = 9  HOMO = -0.684376945474849  LUMO = -0.199928634917666
cycle= 11 E= -111.94348073687  delta_E= -2.59e-06  |g|= 0.00127  |ddm|= 0.00476
  alpha nocc = 10  HOMO = -0.699849493891423  LUMO = -0.132785440722676
  beta  nocc = 9  HOMO = -0.685542267785664  LUMO = -0.198269470187014
cycle= 12 E= -111.943483271336  delta_E= -2.53e-06  |g|= 0.000323  |ddm|= 0.00319
  alpha nocc = 10  HOMO = -0.699954086081499  LUMO = -0.132790543247553
  beta  nocc = 9  HOMO = -0.685420467206723  LUMO = -0.198406595547176
cycle= 13 E= -111.943483426525  delta_E= -1.55e-07  |g|= 0.000145  |ddm|= 0.000394
  alpha nocc = 10  HOMO = -0.700007654436778  LUMO = -0.132785294978673
  beta  nocc = 9  HOMO = -0.685192675407604  LUMO = -0.198601002068501
cycle= 14 E= -111.943483461684  delta_E= -3.52e-08  |g|= 0.000126  |ddm|= 0.000344
  alpha nocc = 10  HOMO = -0.700001034543434  LUMO = -0.132787569305606
  beta  nocc = 9  HOMO = -0.685328584749948  LUMO = -0.19846127332457
cycle= 15 E= -111.943483477834  delta_E= -1.62e-08  |g|= 2.6e-05  |ddm|= 0.00018
  alpha nocc = 10  HOMO = -0.700000263683563  LUMO = -0.132787126437453
  beta  nocc = 9  HOMO = -0.685309559016604  LUMO = -0.198470753863297
cycle= 16 E= -111.943483478693  delta_E= -8.59e-10  |g|= 9.09e-06  |ddm|= 3.7e-05
  alpha nocc = 10  HOMO = -0.700001054710065  LUMO = -0.132787150134918
  beta  nocc = 9  HOMO = -0.685313437054292  LUMO = -0.198466464923262
Extra cycle  E= -111.943483478774  delta_E= -8.08e-11  |g|= 5.13e-06  |ddm|= 6.98e-06
converged SCF energy = -111.943483478774  <S^2> = 0.75865643  2S+1 = 2.0086378
Total energy: -111.94348347877401
Total job time:     139.96(wall)
