  MPI-parallelism will be employed.
------------------------------------------------------------
          Invoking FHI-aims ...
          Version 180319
          Git rev.: 4a4f92f IYZ: fix a mpi communication bug for osRPA
          Compiled on 2018/04/08 at 15:28:21 on host xhpc1.

          When using FHI-aims, please cite the following reference:

          Volker Blum, Ralf Gehrke, Felix Hanke, Paula Havu,
          Ville Havu, Xinguo Ren, Karsten Reuter, and Matthias Scheffler,
          'Ab Initio Molecular Simulations with Numeric Atom-Centered Orbitals',
          Computer Physics Communications 180, 2175-2196 (2009)

          For any questions about FHI-aims, please visit the aimsclub website
          with its forums and wiki. Contributions to both the forums and the
          wiki are warmly encouraged - they are for you, and everyone is welcome there.

------------------------------------------------------------



  Date     :  20230430, Time     :  233046.976
  Time zero on CPU 1             :   0.647351000000000E+00  s.
  Internal wall clock time zero  :           452129446.976  s.

  FHI-aims created a unique identifier for this run for later identification
  aims_uuid : 56403C8B-804E-4EF2-AC2E-5321D9843D86

  Using        8 parallel tasks.
  Task        0 on host xc07n10 reporting.
  Task        1 on host xc07n10 reporting.
  Task        2 on host xc07n10 reporting.
  Task        3 on host xc07n10 reporting.
  Task        4 on host xc07n10 reporting.
  Task        5 on host xc07n10 reporting.
  Task        6 on host xc07n10 reporting.
  Task        7 on host xc07n10 reporting.

  Performing system and environment tests:
  | Environment variable OMP_NUM_THREADS correctly set to 1.
  | Maximum stacksize for task 0: unlimited
  | Maximum stacksize for task 1: unlimited
  | Maximum stacksize for task 2: unlimited
  | Maximum stacksize for task 3: unlimited
  | Maximum stacksize for task 4: unlimited
  | Maximum stacksize for task 5: unlimited
  | Maximum stacksize for task 6: unlimited
  | Maximum stacksize for task 7: unlimited
  | Current stacksize for task 0: unlimited
  | Current stacksize for task 1: unlimited
  | Current stacksize for task 2: unlimited
  | Current stacksize for task 3: unlimited
  | Current stacksize for task 4: unlimited
  | Current stacksize for task 5: unlimited
  | Current stacksize for task 6: unlimited
  | Current stacksize for task 7: unlimited
  | Checking for scalapack...
  | Testing pdtran()...
  | All pdtran() tests passed.

  Obtaining array dimensions for all initial allocations:
  
  -----------------------------------------------------------------------
  Parsing control.in (first pass over file, find array dimensions only).
  The contents of control.in will be repeated verbatim below
  unless switched off by setting 'verbatim_writeout .false.' .
  in the first line of control.in .
  -----------------------------------------------------------------------
  
  xc                       zrps
  #total_energy_method      zrps
  RI_method                V
  KS_method                serial
  frequency_points         60
  frozen_core_postSCF      0
  relativistic             none
  occupation_type          gaussian 0.0001
  mixer                    pulay
  n_max_pulay              10
  charge_mix_param         0.6
  sc_iter_limit            1000
  sc_accuracy_rho          1E-6
  sc_accuracy_eev          1E-4
  sc_accuracy_etot         1E-6
  override_illconditioning .true.
  charge                  -1.0
  spin                     collinear
  fixed_spin_moment        1
  default_initial_moment   0
  
  
  ################################################################################
  #
  #  FHI-aims code project
  # Igor Ying Zhang and Xinguo Ren, Fritz Haber Institute Berlin, 2012
  #
  #  Suggested "cc-pVDZ" defaults for H atom (to be pasted into control.in file)
  #
  ################################################################################
    species        H
  #     global species definitions
      nucleus             1
      mass                1.00794
  #
      l_hartree           6
  #
      cut_pot             4.0  2.0  1.0
      basis_dep_cutoff    0e-0
  #
      radial_base         24 7.0
      radial_multiplier   6
      angular_grids       specified
        division   0.1930   50
        division   0.3175  110
        division   0.4293  194
        division   0.5066  302
        division   0.5626  434
        division   0.5922  590
  #      division   0.6227  974
  #      division   0.6868 1202
        outer_grid  770
  #      outer_grid  434
  ################################################################################
  #
  #  Definition of "minimal" basis
  #
  ################################################################################
  #     valence basis states
      valence      1  s   1.
  #     ion occupancy
      ion_occ      1  s   0.5
  ################################################################################
  #
  #   For exact comparison with all GTO-based codes, one or more of
  #   the following flags are needed:
  #
      include_min_basis   .false.
      pure_gauss          .true.
  #
  
  
  # H cc-pVDZ
   gaussian 0 3
        13.0100000            0.0196850
         1.9620000            0.1379770
         0.4446000            0.4781480
   gaussian 0 1 0.1220000
   gaussian 1 1 0.7270000
  ################################################################################
  #
  #  FHI-aims code project
  # Igor Ying Zhang and Xinguo Ren, Fritz Haber Institute Berlin, 2012
  #
  #  Suggested "cc-pVDZ" defaults for N atom (to be pasted into control.in file)
  #
  ################################################################################
    species        N
  #     global species definitions
      nucleus             7
      mass                14.0067
  #
      l_hartree           6
  #
      cut_pot             4.0  2.0  1.0
      basis_dep_cutoff    0e-0
  #
      radial_base         35 7.0
      radial_multiplier   6
      angular_grids       specified
        division   0.1841   50
        division   0.3514  110
        division   0.5126  194
        division   0.6292  302
        division   0.6939  434
        division   0.7396  590
  #      division   0.7632  770
  #      division   0.8122  974
  #      division   1.1604 1202
  #      outer_grid  974
        outer_grid  770
  #      outer_grid  434
  ################################################################################
  #
  #  Definition of "minimal" basis
  #
  ################################################################################
  #     valence basis states
      valence      2  s   2.
      valence      2  p   3.
  #     ion occupancy
      ion_occ      2  s   1.
      ion_occ      2  p   2.
  ################################################################################
  #
  #   For exact comparison with all GTO-based codes, one or more of
  #   the following flags are needed:
  #
      include_min_basis   .false.
      pure_gauss          .true.
  #
  
  
  # N cc-pVDZ
   gaussian 0 8
      9046.0000000            0.0007000
      1357.0000000            0.0053890
       309.3000000            0.0274060
        87.7300000            0.1032070
        28.5600000            0.2787230
        10.2100000            0.4485400
         3.8380000            0.2782380
         0.7466000            0.0154400
   gaussian 0 8
      9046.0000000           -0.0001530
      1357.0000000           -0.0012080
       309.3000000           -0.0059920
        87.7300000           -0.0245440
        28.5600000           -0.0674590
        10.2100000           -0.1580780
         3.8380000           -0.1218310
         0.7466000            0.5490030
   gaussian 0 1 0.2248000
   gaussian 1 3
        13.5500000            0.0399190
         2.9170000            0.2171690
         0.7973000            0.5103190
   gaussian 1 1 0.2185000
   gaussian 2 1 0.8170000
  
  -----------------------------------------------------------------------
  Completed first pass over input file control.in .
  -----------------------------------------------------------------------
  
  
  -----------------------------------------------------------------------
  Parsing geometry.in (first pass over file, find array dimensions only).
  The contents of geometry.in will be repeated verbatim below
  unless switched off by setting 'verbatim_writeout .false.' .
  in the first line of geometry.in .
  -----------------------------------------------------------------------
  
  atom  -2.1988391019      1.8973746268      0.0000000000    N
  atom  -1.1788391019      1.8973746268      0.0000000000    H
  atom  -2.5388353987      1.0925460144     -0.5263586446    H
  atom  -2.5388400276      2.7556271745     -0.4338224694    H
  
  
  -----------------------------------------------------------------------
  Completed first pass over input file geometry.in .
  -----------------------------------------------------------------------
  

  Basic array size parameters:
  | Number of species                 :        2
  | Number of atoms                   :        4
  | Max. basis fn. angular momentum   :        2
  | Max. atomic/ionic basis occupied n:        2
  | Max. number of basis fn. types    :        1
  | Max. radial fns per species/type  :        7
  | Max. logarithmic grid size        :     1290
  | Max. radial integration grid size :      215
  | Max. angular integration grid size:      770
  | Max. angular grid division number :        8
  | Radial grid for Hartree potential :     1290
  | Number of spin channels           :        2

------------------------------------------------------------
          Reading file control.in.
------------------------------------------------------------
  XC: Using one-parameter Level-5 ZRPS functional NOTE :: PBE0 REFERENCE IS REQUIRED
  Energy shifting on the denominators:      3
  Coupling factor for PT2 on the denominators:       1.00000000
  Screening factor for coupling PT2:       1.00000000
  Shift for screening effect in coupling PT2:       0.00000000
 The 'V' version of RI (resolution of identity) technique is used.
  Kohn-Sham eigenvalues and eigenfunctions calculated by ELSI.
  Number of frequency points used for the self-energy calculation:     60
  Core electrons are frozen in the post-SCF calculation :     0
  Non-relativistic treatment of kinetic energy.
  Occupation type: Gaussian broadening, width =   0.100000E-03 eV.
  Using pulay charge density mixing.
  Pulay mixing - number of memorized iterations:   10
  Charge density mixing - mixing parameter:     0.6000
  Maximum number of s.-c. iterations  :  1000
  Convergence accuracy of self-consistent charge density:  0.1000E-05
  Convergence accuracy of sum of eigenvalues:  0.1000E-03
  Convergence accuracy of total energy:  0.1000E-05
  override_illconditioning: Explicitly overriding any built-in checks for an ill-conditioned overlap matrix.
  *** WARNING: If you use this flag, you should really know what you are doing.
  *** DO NOT keep this flag set by default in all your control.in files.
  Charged system requested: Charge =  -0.100000E+01.
  Spin treatment: Spin density functional theory - collinear spins.
  Fixed spin moment calculation, N_up - N_down =      1.00000000
  Initial spin moment per atom:   0.0000
 
  Reading configuration options for species H                   .
  | Found nuclear charge :   1.0000
  | Found atomic mass :    1.00794000000000      amu
  | Found l_max for Hartree potential  :   6
  | Found cutoff potl. onset [A], width [A], scale factor :    4.00000    2.00000    1.00000
  | Threshold for basis-dependent cutoff potential is   0.000000E+00
  | Found data for basic radial integration grid :    24 points, outermost radius =    7.000 A
  | Found multiplier for basic radial grid :   6
  | Found angular grid specification: user-specified.
  | Specified grid contains     7 separate shells.
  | Check grid settings after all constraints further below.
  | Found free-atom valence shell :  1 s   1.000
  | No ionic wave fns used. Skipping ion_occ.
  | Found request to include minimal basis fns. :     F
  | Found request to include pure gaussian fns. :     T
  | Found contracted cartesian Gaussian basis function :  L = 0 ,   3 elementary Gaussians:
  |   alpha = 0.130100E+02 weight = 0.196850E-01
  |   alpha = 0.196200E+01 weight = 0.137977E+00
  |   alpha = 0.444600E+00 weight = 0.478148E+00
  |   In terms of angular momentum, this radial function adds: 
  |     1 s-type basis function
  | Found primitive cartesian Gaussian basis function :  0 0.122000E+00
  |   In terms of angular momentum, this radial function adds: 
  |     1 s-type basis function
  | Found primitive cartesian Gaussian basis function :  1 0.727000E+00
  |   In terms of angular momentum, this radial function adds: 
  |     3 p-type basis functions
  Species H                   : Missing cutoff potential type.
  Defaulting to exp(1/x)/(1-x)^2 type cutoff potential.
  Species H : No 'logarithmic' tag. Using default grid for free atom:
  | Default logarithmic grid data [bohr] : 0.1000E-03 0.1000E+03 0.1012E+01
  Species H : On-site basis accuracy parameter (for Gram-Schmidt orthonormalisation) not specified.
  Using default value basis_acc =  0.1000000E-03.
  Species H                   : Using default innermost maximum threshold i_radial=  2 for radial functions.
  Species H                   : Default cutoff onset for free atom density etc. is infinite
  since the product basis is used (hybrid functionals, Hartree-Fock, GW etc.).
  Species H                   : Basic radial grid will be enhanced according to radial_multiplier =   6, to contain   149 grid points.
 
  Reading configuration options for species N                   .
  | Found nuclear charge :   7.0000
  | Found atomic mass :    14.0067000000000      amu
  | Found l_max for Hartree potential  :   6
  | Found cutoff potl. onset [A], width [A], scale factor :    4.00000    2.00000    1.00000
  | Threshold for basis-dependent cutoff potential is   0.000000E+00
  | Found data for basic radial integration grid :    35 points, outermost radius =    7.000 A
  | Found multiplier for basic radial grid :   6
  | Found angular grid specification: user-specified.
  | Specified grid contains     7 separate shells.
  | Check grid settings after all constraints further below.
  | Found free-atom valence shell :  2 s   2.000
  | Found free-atom valence shell :  2 p   3.000
  | No ionic wave fns used. Skipping ion_occ.
  | No ionic wave fns used. Skipping ion_occ.
  | Found request to include minimal basis fns. :     F
  | Found request to include pure gaussian fns. :     T
  | Found contracted cartesian Gaussian basis function :  L = 0 ,   8 elementary Gaussians:
  |   alpha = 0.904600E+04 weight = 0.700000E-03
  |   alpha = 0.135700E+04 weight = 0.538900E-02
  |   alpha = 0.309300E+03 weight = 0.274060E-01
  |   alpha = 0.877300E+02 weight = 0.103207E+00
  |   alpha = 0.285600E+02 weight = 0.278723E+00
  |   alpha = 0.102100E+02 weight = 0.448540E+00
  |   alpha = 0.383800E+01 weight = 0.278238E+00
  |   alpha = 0.746600E+00 weight = 0.154400E-01
  |   In terms of angular momentum, this radial function adds: 
  |     1 s-type basis function
  | Found contracted cartesian Gaussian basis function :  L = 0 ,   8 elementary Gaussians:
  |   alpha = 0.904600E+04 weight = -.153000E-03
  |   alpha = 0.135700E+04 weight = -.120800E-02
  |   alpha = 0.309300E+03 weight = -.599200E-02
  |   alpha = 0.877300E+02 weight = -.245440E-01
  |   alpha = 0.285600E+02 weight = -.674590E-01
  |   alpha = 0.102100E+02 weight = -.158078E+00
  |   alpha = 0.383800E+01 weight = -.121831E+00
  |   alpha = 0.746600E+00 weight = 0.549003E+00
  |   In terms of angular momentum, this radial function adds: 
  |     1 s-type basis function
  | Found primitive cartesian Gaussian basis function :  0 0.224800E+00
  |   In terms of angular momentum, this radial function adds: 
  |     1 s-type basis function
  | Found contracted cartesian Gaussian basis function :  L = 1 ,   3 elementary Gaussians:
  |   alpha = 0.135500E+02 weight = 0.399190E-01
  |   alpha = 0.291700E+01 weight = 0.217169E+00
  |   alpha = 0.797300E+00 weight = 0.510319E+00
  |   In terms of angular momentum, this radial function adds: 
  |     3 p-type basis functions
  | Found primitive cartesian Gaussian basis function :  1 0.218500E+00
  |   In terms of angular momentum, this radial function adds: 
  |     3 p-type basis functions
  | Found primitive cartesian Gaussian basis function :  2 0.817000E+00
  |   In terms of angular momentum, this radial function adds: 
  |     5 d-type basis functions
  Species N                   : Missing cutoff potential type.
  Defaulting to exp(1/x)/(1-x)^2 type cutoff potential.
  Species N : No 'logarithmic' tag. Using default grid for free atom:
  | Default logarithmic grid data [bohr] : 0.1000E-03 0.1000E+03 0.1012E+01
  Species N : On-site basis accuracy parameter (for Gram-Schmidt orthonormalisation) not specified.
  Using default value basis_acc =  0.1000000E-03.
  Species N                   : Using default innermost maximum threshold i_radial=  2 for radial functions.
  Species N                   : Default cutoff onset for free atom density etc. is infinite
  since the product basis is used (hybrid functionals, Hartree-Fock, GW etc.).
  Species N                   : Basic radial grid will be enhanced according to radial_multiplier =   6, to contain   215 grid points.
 
  Finished reading input file 'control.in'. Consistency checks are next.
 
  MPI_IN_PLACE appears to work with this MPI implementation.
  | Keeping use_mpi_in_place .true. (see manual).
  Species H: Using default value for prodbas_acc =   1.000000E-02.
  Species H: Using default value max_l_prodbas =     5.
  Species N: Using default value for prodbas_acc =   1.000000E-02.
  Species N: Using default value max_l_prodbas =     5.
 * Species N: Specified min. number of angular integration points is    50
 * The angular momenta for this species require   110 for RI_type 'V'. Increasing angular_min to   110.
 * Species N: Grid shell     1 contains only    50 angular integration points.
 * Increasing to angular_min =   110 integration points.
 * This change is related to the three-center integrals used in RI_method 'V'.
  Target number of points in a grid batch is not set. Defaulting to  100
  Method for grid partitioning is not set. Defaulting to parallel hash+maxmin partitioning.
  Batch size limit is not set. Defaulting to    200
  By default, will store active basis functions for each batch.
  If in need of memory, prune_basis_once .false. can be used to disable this option.
  communication_type for Hartree potential was not specified.
  Defaulting to calc_hartree .
  Pulay mixer: Number of initial linear mixing iterations not set.
  Defaulting to    0 iterations.
  Work space size for distributed Hartree potential not set.
  Defaulting to   0.200000E+03 MB.
  Mixing parameter for spin density mixing has not been set.
  Using charge_mix_param as default:     0.6000.
  Algorithm-dependent basis array size parameters:
  | n_max_pulay                         :       10
  Presetting      1001 iterations before the initial mixing cycle
  is restarted anyway using the sc_init_iter criterion / keyword.
  Presetting a factor      1.000 between actual scf density residual
  and density convergence criterion sc_accuracy_rho below which sc_init_iter
  takes no effect.
  Calculation of forces was not defined in control.in. No forces will be calculated.
  Geometry relaxation not requested: no relaxation will be performed.
  No accuracy limit for integral partition fn. given. Defaulting to  0.1000E-14.
  No threshold value for u(r) in integrations given. Defaulting to  0.1000E-05.
  No accuracy for occupation numbers given. Defaulting to  0.1000E-12.
  No threshold value for occupation numbers given. Defaulting to  0.0000E+00.
  No accuracy for fermi level given. Defaulting to  0.1000E-19.
  Maximum # of iterations to find E_F not set. Defaulting to  200.
  Will not use alltoall communication since running on < 1024 CPUs.
  Threshold for basis singularities not set.
  Default threshold for basis singularities:  0.1000E-04
  partition_type (choice of integration weights) for integrals was not specified.
  | Using a version of the partition function of Stratmann and coworkers ('stratmann_smoother').
  | At each grid point, the set of atoms used to build the partition table is smoothly restricted to
  | only those atoms whose free-atom density would be non-zero at that grid point.
  Partitioning for Hartree potential was not defined. Using partition_type for integrals.
  | Adjusted default value of keyword multip_moments_threshold to:       0.10000000E-11
  | This value may affect high angular momentum components of the Hartree potential in periodic systems.
  Threshold for auxiliary basis singularities not set.
  Default threshold for auxiliary basis singularities:  0.1000E-04
  No q(lm)/r^(l+1) cutoff set for long-range Hartree potential.
  | Using default value of  0.100000E-09 .
  | Verify using the multipole_threshold keyword.
  Defaulting to new monopole extrapolation.
  Density update method: automatic selection selected.
  Default to 1D ("use_logsbt") integrations for auxiliary 2-center integrals.
  Default onset of logarithmic r-grid for SBT is-38.000000000000
  Default onset of logarithmic k-grid for SBT is-25.000000000000
  Default range of logarithmic r- and k-grid for SBT is 45.000000000000
  Default number of logarithmic r- and k-grid for SBT is  4096
------------------------------------------------------------


------------------------------------------------------------
          Reading geometry description geometry.in.
------------------------------------------------------------
 * Warning: Initial charge and total charge of the system are inconsistent.
 * Selected charge in control.in:    -1.0000* Sum of initial charges in geometry.in:     0.0000
  Input structure read successfully.
  The structure contains        4 atoms,  and a total of         11.000 electrons.

  Input geometry:
  | No unit cell requested.
  | Atomic structure:
  |       Atom                x [A]            y [A]            z [A]
  |    1: Species N            -2.19883910        1.89737463        0.00000000
  |    2: Species H            -1.17883910        1.89737463        0.00000000
  |    3: Species H            -2.53883540        1.09254601       -0.52635864
  |    4: Species H            -2.53884003        2.75562717       -0.43382247
  |

  | The smallest distance between any two atoms is         1.02000000 AA.
  |
  | The first atom of this pair is atom number                      1 .
  | The second atom of this pair is atom number                     3 .

  Initial moments and charges:
  |  Atom   Moment         Charge        Species
  |     1   0.000000E+00   0.000000E+00   N
  |     2   0.000000E+00   0.000000E+00   H
  |     3   0.000000E+00   0.000000E+00   H
  |     4   0.000000E+00   0.000000E+00   H

  Number of empty states per atom not set in control.in .
  | Since you are using a method that relies on the unoccupied spectrum
  | (MP2,GW,RPA et al.), will use the full Hamiltonian size (see below)
  | as the max. possible number of states (occupied plus empty).

  First valence state in the frozen-core algorithm :           1
  |                             Main-group    Transition-metal
  | Atom number     ::                   4                   0
  | n_frozen_shell  ::                   0                   0
  Structure-dependent array size parameters: 
  | Number of distinct atom types in initial rho :        2
  | Maximum number of distinct radial functions  :        9
  | Maximum number of basis functions            :       29
  | Number of Kohn-Sham states (occupied + empty):       29
  | Number of core electrons for post-SCF        :        0
------------------------------------------------------------

------------------------------------------------------------
          Preparing all fixed parts of the calculation.
------------------------------------------------------------
  Determining machine precision:
    2.225073858507201E-308
  Setting up grids for atomic and cluster calculations.

  Creating wave function, potential, and density for free atoms.

  Species: H

  List of occupied orbitals and eigenvalues:
    n    l              occ      energy [Ha]    energy [eV]
    1    0           1.0000        -0.238600        -6.4926


  Species: N

  List of occupied orbitals and eigenvalues:
    n    l              occ      energy [Ha]    energy [eV]
    1    0           2.0000       -14.129248      -384.4764
    2    0           2.0000        -0.681982       -18.5577
    2    1           3.0000        -0.260725        -7.0947

  Spin-polarized or charged system:
  Charge density initialized according to selected moments and charges.

  Creating spin-polarized density from free atoms.

  Species: N
  Charge:   0.000000
  Moment:   0.000000

  List of occupied orbitals and eigenvalues:
    n    l      energy [Ha]    energy [eV]    occupation
  Spin-up
    1    0       -14.129007      -384.4699     1.00000000
    2    0        -0.681802       -18.5528     1.00000000
    2    1        -0.260543        -7.0897     1.50000000
  Spin-down
    1    0       -14.129007      -384.4699     1.00000000
    2    0        -0.681802       -18.5528     1.00000000
    2    1        -0.260543        -7.0897     1.50000000


  Species: H
  Charge:   0.000000
  Moment:   0.000000

  List of occupied orbitals and eigenvalues:
    n    l      energy [Ha]    energy [eV]    occupation
  Spin-up
    1    0        -0.238382        -6.4867     0.50000000
  Spin-down
    1    0        -0.238382        -6.4867     0.50000000

  Creating fixed part of basis set: Ionic, confined, hydrogenic.
 
  H                    Gaussian:
 
  List of cartesian Gaussian basis orbitals: 
    L    l
    0    0
    0    0
    1    1
 
 
  N                    Gaussian:
 
  List of cartesian Gaussian basis orbitals: 
    L    l
    0    0
    0    0
    0    0
    1    1
    1    1
    2    2
 

  Adding cutoff potential to free-atom effective potential.
  Creating atomic-like basis functions for current effective potential.
  Assembling full basis from fixed parts.
  | Species H : gaussian orbital   0 s accepted.
  | Species H : gaussian orbital   0 s accepted.
  | Species H : gaussian orbital   1 p accepted.
  | Species N : gaussian orbital   0 s accepted.
  | Species N : gaussian orbital   0 s accepted.
  | Species N : gaussian orbital   0 s accepted.
  | Species N : gaussian orbital   1 p accepted.
  | Species N : gaussian orbital   1 p accepted.
  | Species N : gaussian orbital   2 d accepted.
 
  Basis size parameters after reduction:
  | Total number of radial functions:        9
  | Total number of basis functions :       29
 
  Per-task memory consumption for arrays in subroutine allocate_ext:
  |           2.230468MB.
  Testing on-site integration grid accuracy.
  |  Species  Function  <phi|h_atom|phi> (log., in eV)  <phi|h_atom|phi> (rad., in eV)
           1        1                 -3.5819590401                 -3.5819602135
           1        2                  8.3309295161                  8.3309289796
           1        3                 32.4058937669                 32.4058937205
           2        4               -384.4282675036               -384.4283262775
           2        5                -13.9752508332                -13.9752546336
           2        6                 15.7757396467                 15.7757394926
           2        7                 -2.9542300607                 -2.9542301655
           2        8                 13.2306512513                 13.2306512047
           2        9                 44.5502786740                 44.5502785170

  Preparing densities etc. for the partition functions (integrals / Hartree potential).

  Preparations completed.
  max(cpu_time)          :      0.143 s.
  Wall clock time (cpu1) :      0.143 s.
------------------------------------------------------------

------------------------------------------------------------
          Begin self-consistency loop: Initialization.

          Date     :  20230430, Time     :  233047.179
------------------------------------------------------------

  Initializing index lists of integration centers etc. from given atomic structure:
  | Number of centers in hartree potential         :         4
  | Number of centers in hartree multipole         :         4
  | Number of centers in electron density summation:         4
  | Number of centers in basis integrals           :         4
  | Number of centers in integrals                 :         4
  | Number of centers in hamiltonian               :         4
  Partitioning the integration grid into batches with parallel hashing+maxmin method.
  | Number of batches:     3437
  | Maximal batch size:     196
  | Minimal batch size:      49
  | Average batch size:      91.633
  | Standard deviation of batch sizes:      32.487

  Integration load balanced across     8 MPI tasks.
  Work distribution over tasks is as follows:
  Task     0 has      39332 integration points.
  Task     1 has      39458 integration points.
  Task     2 has      39325 integration points.
  Task     3 has      39393 integration points.
  Task     4 has      39334 integration points.
  Task     5 has      39327 integration points.
  Task     6 has      39327 integration points.
  Task     7 has      39448 integration points.
  Initializing partition tables, free-atom densities, potentials, etc. across the integration grid (initialize_grid_storage).
  | Species        1: outer_partition_radius set to             16.344003741102970 AA .
  | Species        2: outer_partition_radius set to             13.912651317759941 AA .
  | Original list of interatomic distances with           4 x          4 entries is created.
  | Net number of integration points:   314944
  | of which are non-zero points    :   263171
  Renormalizing the initial density to the exact electron count on the 3D integration grid.
  | Initial density: Formal number of electrons (from input files) :      10.0000000000
  | Integrated number of electrons on 3D grid     :       9.9999999811
  | Charge integration error                      :      -0.0000000189
  | Normalization factor for density and gradient :       1.0000000019
  Obtaining max. number of non-zero basis functions in each batch (get_n_compute_maxes).
  | Maximal number of non-zero basis functions:       29 in task     0
  | Maximal number of non-zero basis functions:       29 in task     1
  | Maximal number of non-zero basis functions:       29 in task     2
  | Maximal number of non-zero basis functions:       29 in task     3
  | Maximal number of non-zero basis functions:       29 in task     4
  | Maximal number of non-zero basis functions:       29 in task     5
  | Maximal number of non-zero basis functions:       29 in task     6
  | Maximal number of non-zero basis functions:       29 in task     7
  Selecting the method for density update.
  Loop over occupied states selected for charge density update.
  Allocating        0.013 MB for KS_eigenvector
  Integrating Hamiltonian matrix: batch-based integration.
  Time summed over all CPUs for integration: real work        0.535 s, elapsed        0.559 s
  Integrating overlap matrix.
  Time summed over all CPUs for integration: real work        0.155 s, elapsed        0.162 s

  Updating Kohn-Sham eigenvalues and eigenvectors using ELSI and the ELPA eigensolver.
  Overlap matrix is nonsingular
  | Lowest eigenvalue of overlap  :  0.32E-01
  | Highest eigenvalue of overlap :  0.31E+01
  Finished singularity check of overlap matrix
  | Time :     0.001 s
  Finished Cholesky decomposition
  | Time :     0.000 s
  Finished transformation to standard eigenproblem
  | Time :     0.001 s
  Starting LAPACK eigensolver
  Finished solving standard eigenproblem
  | Time :     0.000 s
  Finished back-transformation of eigenvectors
  | Time :     0.000 s
  Finished Cholesky decomposition
  | Time :     0.000 s
  Finished transformation to standard eigenproblem
  | Time :     0.000 s
  Starting LAPACK eigensolver
  Finished solving standard eigenproblem
  | Time :     0.000 s
  Finished back-transformation of eigenvectors
  | Time :     0.000 s
  Fixed spin moments - chemical potentials:
  | Chemical potential, spin up:    0.1719210418 eV.
  | Chemical potential, spin dn:   -7.0184335027 eV.
  | Fixed spin moment: Difference in chemical potentials between spin channels:   7.1903545445 eV.

  Writing Kohn-Sham eigenvalues.

  Spin-up eigenvalues:

  State    Occupation    Eigenvalue [Ha]    Eigenvalue [eV]
      1       1.00000         -14.262678         -388.10722
      2       1.00000          -0.968249          -26.34739
      3       1.00000          -0.592031          -16.10998
      4       1.00000          -0.592030          -16.10997
      5       1.00000          -0.411192          -11.18911
      6       1.00000          -0.039041           -1.06236
      7       0.00000           0.028962            0.78811
      8       0.00000           0.028962            0.78811
      9       0.00000           0.364129            9.90846
     10       0.00000           0.364130            9.90849
     11       0.00000           0.452765           12.32036
     12       0.00000           0.537759           14.63318
     13       0.00000           0.634249           17.25878
     14       0.00000           0.634249           17.25878
     15       0.00000           0.893556           24.31490
     16       0.00000           0.893558           24.31494
     17       0.00000           0.960006           26.12310
     18       0.00000           1.299310           35.35602
     19       0.00000           1.461383           39.76626
     20       0.00000           1.508906           41.05943
     21       0.00000           1.508907           41.05946
     22       0.00000           1.758810           47.85965
     23       0.00000           1.758811           47.85967
     24       0.00000           1.943575           52.88736
     25       0.00000           2.245262           61.09670
     26       0.00000           2.245264           61.09673
     27       0.00000           2.403978           65.41558
     28       0.00000           2.648723           72.07541
     29       0.00000           2.648725           72.07547

  Spin-down eigenvalues:

  State    Occupation    Eigenvalue [Ha]    Eigenvalue [eV]
      1       1.00000         -14.262678         -388.10722
      2       1.00000          -0.968249          -26.34739
      3       1.00000          -0.592031          -16.10998
      4       1.00000          -0.592030          -16.10997
      5       1.00000          -0.411192          -11.18911
      6       0.00000          -0.039041           -1.06236
      7       0.00000           0.028962            0.78811
      8       0.00000           0.028962            0.78811
      9       0.00000           0.364129            9.90846
     10       0.00000           0.364130            9.90849
     11       0.00000           0.452765           12.32036
     12       0.00000           0.537759           14.63318
     13       0.00000           0.634249           17.25878
     14       0.00000           0.634249           17.25878
     15       0.00000           0.893556           24.31490
     16       0.00000           0.893558           24.31494
     17       0.00000           0.960006           26.12310
     18       0.00000           1.299310           35.35602
     19       0.00000           1.461383           39.76626
     20       0.00000           1.508906           41.05943
     21       0.00000           1.508907           41.05946
     22       0.00000           1.758810           47.85965
     23       0.00000           1.758811           47.85967
     24       0.00000           1.943575           52.88736
     25       0.00000           2.245262           61.09670
     26       0.00000           2.245264           61.09673
     27       0.00000           2.403978           65.41558
     28       0.00000           2.648723           72.07541
     29       0.00000           2.648725           72.07547

  Current spin moment of the entire structure :
  | N = N_up - N_down :    1.00
  | S                 :    0.50
  | J                 :    2.00

  Highest occupied state (VBM) at     -1.06236186 eV
  | Occupation number:      1.00000000
  | Spin channel:        1

  Lowest unoccupied state (CBM) at    -1.06236186 eV
  | Occupation number:      0.00000000
  | Spin channel:        2

  Overall HOMO-LUMO gap:      0.00000000 eV.
  Calculating total energy contributions from superposition of free atom densities.

  Total energy components:
  | Sum of eigenvalues            :         -33.69140208 Ha        -916.78969628 eV
  | XC energy correction          :          -7.65893127 Ha        -208.41012375 eV
  | XC potential correction       :           9.84222090 Ha         267.82045730 eV
  | Free-atom electrostatic energy:         -25.12626073 Ha        -683.72034178 eV
  | Hartree energy correction     :           0.00000000 Ha           0.00000000 eV
  | Entropy correction            :           0.00000000 Ha           0.00000000 eV
  | ---------------------------
  | Total energy                  :         -56.63437318 Ha       -1541.09970451 eV
  | Total energy, T -> 0          :         -56.63437318 Ha       -1541.09970451 eV  <-- do not rely on this value for anything but (periodic) metals
  | Electronic free energy        :         -56.63437318 Ha       -1541.09970451 eV

  Derived energy quantities:
  | Kinetic energy                :          55.42634089 Ha        1508.22747344 eV
  | Electrostatic energy          :        -104.40178280 Ha       -2840.91705419 eV
  | Energy correction for multipole
  | error in Hartree potential    :           0.00000000 Ha           0.00000000 eV
  | Sum of eigenvalues per atom                           :        -229.19742407 eV
  | Total energy (T->0) per atom                          :        -385.27492613 eV  <-- do not rely on this value for anything but (periodic) metals
  | Electronic free energy per atom                       :        -385.27492613 eV
 
 --------------------------------------------
  Constructing auxiliary basis (full product) ...
 
  Product basis:
  | charge radius: extent of product basis function
  | field radius: extent of its Coulomb potential
  | Species   l  charge radius    field radius  multipol momen
  |    H      1     3.215356 A      3.215356 A        8.252506E-17 a.u.
  |    H      0     3.815562 A      3.815562 A        1.866738E-16 a.u.
  |    H      0     5.781930 A      5.781930 A        2.048910E-16 a.u.
  |    H      2     2.517934 A  8.608416E+03 A            0.342576 a.u.
  |    H      1     3.254905 A  1.287336E+06 A            0.470947 a.u.
  |    H      0     5.711676 A  3.461514E+12 A            0.520541 a.u.
  |    N      0     2.196414 A      2.196414 A        1.322711E-16 a.u.
  |    N      1     2.334858 A      2.334858 A       -1.897155E-17 a.u.
  |    N      0     2.363576 A      2.363576 A       -1.358525E-16 a.u.
  |    N      0     2.874204 A      2.874204 A       -2.698063E-17 a.u.
  |    N      1     2.945344 A      2.945344 A       -2.961007E-17 a.u.
  |    N      0     2.981572 A      2.981572 A        1.009754E-17 a.u.
  |    N      2     2.981572 A      2.981572 A        9.660869E-17 a.u.
  |    N      3     3.055370 A      3.055370 A       -2.600887E-16 a.u.
  |    N      3     3.092951 A      3.092951 A       -3.981171E-16 a.u.
  |    N      0     4.355438 A      4.355438 A       -7.040385E-17 a.u.
  |    N      1     4.409010 A      4.409010 A       -2.566437E-16 a.u.
  |    N      1     4.463241 A      4.463241 A        2.881303E-16 a.u.
  |    N      2     4.518138 A      4.518138 A        3.282863E-17 a.u.
  |    N      2     4.518138 A      4.518138 A        1.386059E-16 a.u.
  |    N      2     4.518138 A      4.518138 A        1.656371E-16 a.u.
  |    N      4     2.512557 A  2.235992E+02 A            1.071854 a.u.
  |    N      3     3.130994 A  1.215155E+03 A            2.212646 a.u.
  |    N      2     4.629968 A  1.629443E+04 A            2.323294 a.u.
  |    N      1     4.518138 A  1.795284E+06 A            0.915913 a.u.
  |    N      0     4.302517 A  3.127038E+12 A            0.470243 a.u.

  | Shrink_full_auxil_basis : there are       26  radial auxiliary wave functions
                            accepted and      17 rejected.
  | Shrink_full_auxil_basis : there are totally                 118 partial auxiliary wave functions.
 
  | Number of product basis functions per thread :    15
  | Minimal requirement for computer memory :           0.000 Gbs
 
  Basis pair condensation :       435  -->        435
 
 ----------------------------------------------------
  Integrating the 3-basis-function Coulomb matrix ...
  | i_atom:            1
  | i_atom:            2
  | i_atom:            3
  | i_atom:            4
  Integrating the Coulomb interaction matrix for auxiliary basis functions (by atoms)

  SBT integration errors (all should be 'small'):
  large logFT aliasing -> increase N/lnrange
  large SBT aliasing -> decrease lnk0 & increase lnk0+lnrange
  large SBT ringing -> decrease lnr0 & increase lnr0+lnrange
  |            El't  L: logFT-al.   small-k   large-k   small-r   large-r
  Atomic logSBT for 2-center Coulomb matrix    :  max(cpu_time)    wall_clock(cpu1)
  | Multiplication with kernel                 :        0.001 s           0.002 s
  | Main matrix multiplication                 :        0.003 s           0.000 s
  | Analytic angular integration               :        0.002 s           0.003 s
  | Kernel construction                        :        0.001 s           0.001 s
  | Overall 2-center overlap time              :        0.012 s           0.008 s

  Difference of Coulomb matrix to its transposed:  3.8858E-16
  Task     0: Eigenvalues of the Coulomb matrix range from    3.7548E+00 to    8.1002E-05.
  Task     0: Using      118   eigenvalues out of rank      118   Coulomb matrix (auxiliary basis).
 
  Multiplying V^-0.5 x ovlp_3fn (1d-scalapack)

  Initialize hartree_potential_storage
  Max. number of atoms included in rho_multipole:            4

  End scf initialization - timings             :  max(cpu_time)    wall_clock(cpu1)
  | Time for scf. initialization               :        0.903 s           0.907 s
  | Boundary condition initialization          :        0.000 s           0.000 s
  | Integration                                :        0.091 s           0.091 s
  | Solution of K.-S. eqns.                    :        0.002 s           0.002 s
  | Grid partitioning                          :        0.070 s           0.071 s
  | Preloading free-atom quantities on grid    :        0.024 s           0.024 s
  | Free-atom superposition energy             :        0.026 s           0.025 s
  | Total energy evaluation                    :        0.000 s           0.000 s
  | Product basis setup: Total time            :        0.655 s           0.658 s
  | Product basis: | 3-center integrations     :        0.585 s           0.586 s
  | Product basis: | 2-center integrations     :        0.042 s           0.041 s
  | Product basis: | 2-center linear algebra   :        0.007 s           0.007 s
  | Product basis: | 3-center x 2-center       :        0.004 s           0.004 s

  Partial memory accounting:
  | Current value for overall tracked memory usage on task 0  :           0.024 MB
  | Peak value for overall tracked memory usage on task 0     :           0.259 MB after allocating wave
  | Largest tracked array allocation on task 0 so far         :           0.091 MB  when allocating H_times_psi
  Note:  These values currently only include a subset of arrays which are explicitly tracked.
  The "true" memory usage will be greater.
------------------------------------------------------------

------------------------------------------------------------
          Begin self-consistency iteration #    1

  Date     :  20230430, Time     :  233048.086
------------------------------------------------------------
  Evaluating new KS density.
  Integration grid: deviation in total charge (<rho> - N_e) =  -7.105427E-15
  | <rho_up-rho_dn> = N_up-N_dn =      1.0000; <|rho_up-rho_dn|> =      1.0000
  Pulay mixing of updated and previous charge densities.

  Evaluating partitioned Hartree potential by multipole expansion.
  | Analytical far-field extrapolation by fixed multipoles:
  | Hartree multipole sum: apparent total charge =  -0.600000E+00
  Summing up the Hartree potential.
  Time summed over all CPUs for potential: real work        0.388 s, elapsed        0.402 s
  | RMS charge density error from multipole expansion :   0.376474E-02

  Integrating Hamiltonian matrix: batch-based integration.
  Time summed over all CPUs for integration: real work        0.532 s, elapsed        0.552 s
  Evaluating the exchange matrix ... 

  Updating Kohn-Sham eigenvalues and eigenvectors using ELSI and the ELPA eigensolver.
  Finished Cholesky decomposition
  | Time :     0.000 s
  Finished transformation to standard eigenproblem
  | Time :     0.000 s
  Starting LAPACK eigensolver
  Finished solving standard eigenproblem
  | Time :     0.000 s
  Finished back-transformation of eigenvectors
  | Time :     0.000 s
  Finished Cholesky decomposition
  | Time :     0.000 s
  Finished transformation to standard eigenproblem
  | Time :     0.000 s
  Starting LAPACK eigensolver
  Finished solving standard eigenproblem
  | Time :     0.000 s
  Finished back-transformation of eigenvectors
  | Time :     0.000 s
  Fixed spin moments - chemical potentials:
  | Chemical potential, spin up:    6.4730209971 eV.
  | Chemical potential, spin dn:   -0.5123015237 eV.
  | Fixed spin moment: Difference in chemical potentials between spin channels:   6.9853225207 eV.

  Writing Kohn-Sham eigenvalues.

  Spin-up eigenvalues:

  State    Occupation    Eigenvalue [Ha]    Eigenvalue [eV]
      1       1.00000         -13.888828         -377.93425
      2       1.00000          -0.624986          -17.00674
      3       1.00000          -0.249592           -6.79174
      4       1.00000          -0.249591           -6.79172
      5       1.00000          -0.029923           -0.81424
      6       1.00000           0.154770            4.21150
      7       0.00000           0.290116            7.89446
      8       0.00000           0.290116            7.89447
      9       0.00000           0.710195           19.32540
     10       0.00000           0.710197           19.32543
     11       0.00000           0.806145           21.93632
     12       0.00000           0.983035           26.74974
     13       0.00000           1.045488           28.44917
     14       0.00000           1.045488           28.44917
     15       0.00000           1.293490           35.19764
     16       0.00000           1.293491           35.19768
     17       0.00000           1.364347           37.12577
     18       0.00000           1.658400           45.12736
     19       0.00000           1.861439           50.65233
     20       0.00000           1.867966           50.82995
     21       0.00000           1.867967           50.82998
     22       0.00000           2.219051           60.38346
     23       0.00000           2.219053           60.38349
     24       0.00000           2.389095           65.01060
     25       0.00000           2.728184           74.23767
     26       0.00000           2.728186           74.23771
     27       0.00000           2.879496           78.35509
     28       0.00000           3.169835           86.25561
     29       0.00000           3.169837           86.25566

  Spin-down eigenvalues:

  State    Occupation    Eigenvalue [Ha]    Eigenvalue [eV]
      1       1.00000         -13.881852         -377.74442
      2       1.00000          -0.609617          -16.58851
      3       1.00000          -0.235586           -6.41062
      4       1.00000          -0.235585           -6.41061
      5       1.00000          -0.022316           -0.60725
      6       0.00000           0.236048            6.42320
      7       0.00000           0.317007            8.62619
      8       0.00000           0.317007            8.62619
      9       0.00000           0.722643           19.66412
     10       0.00000           0.722644           19.66415
     11       0.00000           0.835329           22.73046
     12       0.00000           0.994730           27.06798
     13       0.00000           1.060759           28.86473
     14       0.00000           1.060760           28.86474
     15       0.00000           1.303387           35.46697
     16       0.00000           1.303389           35.46701
     17       0.00000           1.375408           37.42675
     18       0.00000           1.672737           45.51749
     19       0.00000           1.873557           50.98207
     20       0.00000           1.880736           51.17742
     21       0.00000           1.880737           51.17745
     22       0.00000           2.232221           60.74181
     23       0.00000           2.232222           60.74184
     24       0.00000           2.406607           65.48712
     25       0.00000           2.740223           74.56526
     26       0.00000           2.740224           74.56530
     27       0.00000           2.892486           78.70855
     28       0.00000           3.180331           86.54121
     29       0.00000           3.180333           86.54126

  Current spin moment of the entire structure :
  | N = N_up - N_down :    1.00
  | S                 :    0.50
  | J                 :    2.00

  Highest occupied state (VBM) at      4.21149713 eV
  | Occupation number:      1.00000000
  | Spin channel:        1
 * WARNING: The VBM is higher than the internal energy zero!

  Lowest unoccupied state (CBM) at     6.42319523 eV
  | Occupation number:      0.00000000
  | Spin channel:        2

  Overall HOMO-LUMO gap:      2.21169810 eV.

  Total energy components:
  | Sum of eigenvalues            :         -29.87310691 Ha        -812.88859829 eV
  | XC energy correction          :          -4.17236013 Ha        -113.53569588 eV
  | XC potential correction       :           8.03021077 Ha         218.51315278 eV
  | Free-atom electrostatic energy:         -25.12626073 Ha        -683.72034178 eV
  | Hartree energy correction     :          -5.22248806 Ha        -142.11113066 eV
  | Entropy correction            :           0.00000000 Ha           0.00000000 eV
  | ---------------------------
  | Total energy                  :         -56.36400507 Ha       -1533.74261383 eV
  | Total energy, T -> 0          :         -56.36400507 Ha       -1533.74261383 eV  <-- do not rely on this value for anything but (periodic) metals
  | Electronic free energy        :         -56.36400507 Ha       -1533.74261383 eV

  Derived energy quantities:
  | Kinetic energy                :          70.16283679 Ha        1909.22792942 eV
  | Electrostatic energy          :        -105.83058750 Ha       -2879.79680842 eV
  | Energy correction for multipole
  | error in Hartree potential    :          -0.00603064 Ha          -0.16410206 eV
  | Sum of eigenvalues per atom                           :        -203.22214957 eV
  | Total energy (T->0) per atom                          :        -383.43565346 eV  <-- do not rely on this value for anything but (periodic) metals
  | Electronic free energy per atom                       :        -383.43565346 eV

  Self-consistency convergence accuracy:
  | Change of charge/spin density :  0.3641E+00  0.8647E-01
  | Change of sum of eigenvalues  :  0.1039E+03 eV
  | Change of total energy        :  0.7357E+01 eV

  End self-consistency iteration #     1       :  max(cpu_time)    wall_clock(cpu1)
  | Time for this iteration                    :        0.181 s           0.182 s
  | Charge density update                      :        0.048 s           0.048 s
  | Density mixing                             :        0.006 s           0.006 s
  | Hartree multipole update                   :        0.005 s           0.006 s
  | Hartree multipole summation                :        0.051 s           0.051 s
  | Integration                                :        0.069 s           0.069 s
  | Fock matrix evaluation                     :        0.000 s           0.000 s
  | Solution of K.-S. eqns.                    :        0.000 s           0.001 s
  | Total energy evaluation                    :        0.000 s           0.000 s

  Partial memory accounting:
  | Current value for overall tracked memory usage on task 0  :           0.024 MB
  | Peak value for overall tracked memory usage on task 0     :           0.259 MB after allocating wave
  | Largest tracked array allocation on task 0 so far         :           0.136 MB  when allocating gradient_basis_wave
  Note:  These values currently only include a subset of arrays which are explicitly tracked.
  The "true" memory usage will be greater.
------------------------------------------------------------

------------------------------------------------------------
          Begin self-consistency iteration #    2

  Date     :  20230430, Time     :  233048.270
------------------------------------------------------------
  Evaluating new KS density.
  Integration grid: deviation in total charge (<rho> - N_e) =  -1.065814E-14
  | <rho_up-rho_dn> = N_up-N_dn =      1.0000; <|rho_up-rho_dn|> =      1.0170
  Pulay mixing of updated and previous charge densities.

  Evaluating partitioned Hartree potential by multipole expansion.
  | Analytical far-field extrapolation by fixed multipoles:
  | Hartree multipole sum: apparent total charge =  -0.752899E+00
  Summing up the Hartree potential.
  Time summed over all CPUs for potential: real work        0.398 s, elapsed        0.407 s
  | RMS charge density error from multipole expansion :   0.401239E-02

  Integrating Hamiltonian matrix: batch-based integration.
  Time summed over all CPUs for integration: real work        0.532 s, elapsed        0.546 s
  Evaluating the exchange matrix ... 

  Updating Kohn-Sham eigenvalues and eigenvectors using ELSI and the ELPA eigensolver.
  Finished Cholesky decomposition
  | Time :     0.000 s
  Finished transformation to standard eigenproblem
  | Time :     0.000 s
  Starting LAPACK eigensolver
  Finished solving standard eigenproblem
  | Time :     0.000 s
  Finished back-transformation of eigenvectors
  | Time :     0.000 s
  Finished Cholesky decomposition
  | Time :     0.000 s
  Finished transformation to standard eigenproblem
  | Time :     0.000 s
  Starting LAPACK eigensolver
  Finished solving standard eigenproblem
  | Time :     0.001 s
  Finished back-transformation of eigenvectors
  | Time :     0.000 s
  Fixed spin moments - chemical potentials:
  | Chemical potential, spin up:    5.5956771052 eV.
  | Chemical potential, spin dn:    5.8730156787 eV.
  | Fixed spin moment: Difference in chemical potentials between spin channels:  -0.2773385735 eV.

  Current spin moment of the entire structure :
  | N = N_up - N_down :    1.00
  | S                 :    0.50
  | J                 :    2.00

  Highest occupied state (VBM) at      4.76000680 eV
  | Occupation number:      1.00000000
  | Spin channel:        1
 * WARNING: The VBM is higher than the internal energy zero!

  Lowest unoccupied state (CBM) at     7.10342457 eV
  | Occupation number:      0.00000000
  | Spin channel:        2

  Overall HOMO-LUMO gap:      2.34341778 eV.

  Checking to see if s.c.f. parameters should be adjusted.

  Total energy components:
  | Sum of eigenvalues            :         -30.15533228 Ha        -820.56834148 eV
  | XC energy correction          :          -4.22764594 Ha        -115.04009911 eV
  | XC potential correction       :           7.97247190 Ha         216.94199834 eV
  | Free-atom electrostatic energy:         -25.12626073 Ha        -683.72034178 eV
  | Hartree energy correction     :          -4.84470657 Ha        -131.83117330 eV
  | Entropy correction            :           0.00000000 Ha           0.00000000 eV
  | ---------------------------
  | Total energy                  :         -56.38147362 Ha       -1534.21795732 eV
  | Total energy, T -> 0          :         -56.38147362 Ha       -1534.21795732 eV  <-- do not rely on this value for anything but (periodic) metals
  | Electronic free energy        :         -56.38147362 Ha       -1534.21795732 eV

  Derived energy quantities:
  | Kinetic energy                :          68.75855165 Ha        1871.01538660 eV
  | Electrostatic energy          :        -105.18214265 Ha       -2862.15172622 eV
  | Energy correction for multipole
  | error in Hartree potential    :          -0.00546135 Ha          -0.14861092 eV
  | Sum of eigenvalues per atom                           :        -205.14208537 eV
  | Total energy (T->0) per atom                          :        -383.55448933 eV  <-- do not rely on this value for anything but (periodic) metals
  | Electronic free energy per atom                       :        -383.55448933 eV

  Self-consistency convergence accuracy:
  | Change of charge/spin density :  0.2382E+00  0.3055E-01
  | Change of sum of eigenvalues  : -0.7680E+01 eV
  | Change of total energy        : -0.4753E+00 eV

  End self-consistency iteration #     2       :  max(cpu_time)    wall_clock(cpu1)
  | Time for this iteration                    :        0.175 s           0.175 s
  | Charge density update                      :        0.043 s           0.043 s
  | Density mixing                             :        0.006 s           0.005 s
  | Hartree multipole update                   :        0.005 s           0.006 s
  | Hartree multipole summation                :        0.051 s           0.051 s
  | Integration                                :        0.068 s           0.069 s
  | Fock matrix evaluation                     :        0.000 s           0.000 s
  | Solution of K.-S. eqns.                    :        0.000 s           0.001 s
  | Total energy evaluation                    :        0.000 s           0.000 s

  Partial memory accounting:
  | Current value for overall tracked memory usage on task 0  :           0.025 MB
  | Peak value for overall tracked memory usage on task 0     :           0.260 MB after allocating wave
  | Largest tracked array allocation on task 0 so far         :           0.136 MB  when allocating gradient_basis_wave
  Note:  These values currently only include a subset of arrays which are explicitly tracked.
  The "true" memory usage will be greater.
------------------------------------------------------------

------------------------------------------------------------
          Begin self-consistency iteration #    3

  Date     :  20230430, Time     :  233048.445
------------------------------------------------------------
  Evaluating new KS density.
  Integration grid: deviation in total charge (<rho> - N_e) =   0.000000E+00
  | <rho_up-rho_dn> = N_up-N_dn =      1.0000; <|rho_up-rho_dn|> =      1.0190
  Pulay mixing of updated and previous charge densities.

  Evaluating partitioned Hartree potential by multipole expansion.
  | Analytical far-field extrapolation by fixed multipoles:
  | Hartree multipole sum: apparent total charge =  -0.979097E+00
  Summing up the Hartree potential.
  Time summed over all CPUs for potential: real work        0.384 s, elapsed        0.392 s
  | RMS charge density error from multipole expansion :   0.510628E-02

  Integrating Hamiltonian matrix: batch-based integration.
  Time summed over all CPUs for integration: real work        0.527 s, elapsed        0.541 s
  Evaluating the exchange matrix ... 

  Updating Kohn-Sham eigenvalues and eigenvectors using ELSI and the ELPA eigensolver.
  Finished Cholesky decomposition
  | Time :     0.000 s
  Finished transformation to standard eigenproblem
  | Time :     0.000 s
  Starting LAPACK eigensolver
  Finished solving standard eigenproblem
  | Time :     0.000 s
  Finished back-transformation of eigenvectors
  | Time :     0.000 s
  Finished Cholesky decomposition
  | Time :     0.000 s
  Finished transformation to standard eigenproblem
  | Time :     0.000 s
  Starting LAPACK eigensolver
  Finished solving standard eigenproblem
  | Time :     0.000 s
  Finished back-transformation of eigenvectors
  | Time :     0.000 s
  Fixed spin moments - chemical potentials:
  | Chemical potential, spin up:    6.6728988372 eV.
  | Chemical potential, spin dn:    6.9601307196 eV.
  | Fixed spin moment: Difference in chemical potentials between spin channels:  -0.2872318823 eV.

  Current spin moment of the entire structure :
  | N = N_up - N_down :    1.00
  | S                 :    0.50
  | J                 :    2.00

  Highest occupied state (VBM) at      6.05306616 eV
  | Occupation number:      1.00000000
  | Spin channel:        1
 * WARNING: The VBM is higher than the internal energy zero!

  Lowest unoccupied state (CBM) at     8.56488054 eV
  | Occupation number:      0.00000000
  | Spin channel:        2

  Overall HOMO-LUMO gap:      2.51181439 eV.

  Total energy components:
  | Sum of eigenvalues            :         -29.69334439 Ha        -807.99701119 eV
  | XC energy correction          :          -4.25098572 Ha        -115.67520690 eV
  | XC potential correction       :           7.99975322 Ha         217.68436082 eV
  | Free-atom electrostatic energy:         -25.12626073 Ha        -683.72034178 eV
  | Hartree energy correction     :          -5.26841558 Ha        -143.36088194 eV
  | Entropy correction            :           0.00000000 Ha           0.00000000 eV
  | ---------------------------
  | Total energy                  :         -56.33925319 Ha       -1533.06908098 eV
  | Total energy, T -> 0          :         -56.33925319 Ha       -1533.06908098 eV  <-- do not rely on this value for anything but (periodic) metals
  | Electronic free energy        :         -56.33925319 Ha       -1533.06908098 eV

  Derived energy quantities:
  | Kinetic energy                :          68.36465181 Ha        1860.29682666 eV
  | Electrostatic energy          :        -104.74216342 Ha       -2850.17928221 eV
  | Energy correction for multipole
  | error in Hartree potential    :          -0.00588392 Ha          -0.16010951 eV
  | Sum of eigenvalues per atom                           :        -201.99925280 eV
  | Total energy (T->0) per atom                          :        -383.26727025 eV  <-- do not rely on this value for anything but (periodic) metals
  | Electronic free energy per atom                       :        -383.26727025 eV

  Self-consistency convergence accuracy:
  | Change of charge/spin density :  0.8040E-01  0.1874E-01
  | Change of sum of eigenvalues  :  0.1257E+02 eV
  | Change of total energy        :  0.1149E+01 eV

  End self-consistency iteration #     3       :  max(cpu_time)    wall_clock(cpu1)
  | Time for this iteration                    :        0.176 s           0.176 s
  | Charge density update                      :        0.043 s           0.043 s
  | Density mixing                             :        0.008 s           0.009 s
  | Hartree multipole update                   :        0.006 s           0.005 s
  | Hartree multipole summation                :        0.049 s           0.050 s
  | Integration                                :        0.068 s           0.068 s
  | Fock matrix evaluation                     :        0.000 s           0.000 s
  | Solution of K.-S. eqns.                    :        0.000 s           0.001 s
  | Total energy evaluation                    :        0.000 s           0.000 s

  Partial memory accounting:
  | Current value for overall tracked memory usage on task 0  :           0.025 MB
  | Peak value for overall tracked memory usage on task 0     :           0.260 MB after allocating wave
  | Largest tracked array allocation on task 0 so far         :           0.136 MB  when allocating gradient_basis_wave
  Note:  These values currently only include a subset of arrays which are explicitly tracked.
  The "true" memory usage will be greater.
------------------------------------------------------------

------------------------------------------------------------
          Begin self-consistency iteration #    4

  Date     :  20230430, Time     :  233048.621
------------------------------------------------------------
  Evaluating new KS density.
  Integration grid: deviation in total charge (<rho> - N_e) =  -1.421085E-14
  | <rho_up-rho_dn> = N_up-N_dn =      1.0000; <|rho_up-rho_dn|> =      1.0269
  Pulay mixing of updated and previous charge densities.

  Evaluating partitioned Hartree potential by multipole expansion.
  | Analytical far-field extrapolation by fixed multipoles:
  | Hartree multipole sum: apparent total charge =  -0.988683E+00
  Summing up the Hartree potential.
  Time summed over all CPUs for potential: real work        0.380 s, elapsed        0.388 s
  | RMS charge density error from multipole expansion :   0.512436E-02

  Integrating Hamiltonian matrix: batch-based integration.
  Time summed over all CPUs for integration: real work        0.528 s, elapsed        0.542 s
  Evaluating the exchange matrix ... 

  Updating Kohn-Sham eigenvalues and eigenvectors using ELSI and the ELPA eigensolver.
  Finished Cholesky decomposition
  | Time :     0.000 s
  Finished transformation to standard eigenproblem
  | Time :     0.000 s
  Starting LAPACK eigensolver
  Finished solving standard eigenproblem
  | Time :     0.000 s
  Finished back-transformation of eigenvectors
  | Time :     0.000 s
  Finished Cholesky decomposition
  | Time :     0.000 s
  Finished transformation to standard eigenproblem
  | Time :     0.000 s
  Starting LAPACK eigensolver
  Finished solving standard eigenproblem
  | Time :     0.000 s
  Finished back-transformation of eigenvectors
  | Time :     0.000 s
  Fixed spin moments - chemical potentials:
  | Chemical potential, spin up:    6.5296762453 eV.
  | Chemical potential, spin dn:    6.8052049444 eV.
  | Fixed spin moment: Difference in chemical potentials between spin channels:  -0.2755286991 eV.

  Current spin moment of the entire structure :
  | N = N_up - N_down :    1.00
  | S                 :    0.50
  | J                 :    2.00

  Highest occupied state (VBM) at      6.02257697 eV
  | Occupation number:      1.00000000
  | Spin channel:        1
 * WARNING: The VBM is higher than the internal energy zero!

  Lowest unoccupied state (CBM) at     8.54031209 eV
  | Occupation number:      0.00000000
  | Spin channel:        2

  Overall HOMO-LUMO gap:      2.51773512 eV.

  Total energy components:
  | Sum of eigenvalues            :         -29.74836193 Ha        -809.49411468 eV
  | XC energy correction          :          -4.24550616 Ha        -115.52610045 eV
  | XC potential correction       :           7.98996437 Ha         217.41799249 eV
  | Free-atom electrostatic energy:         -25.12626073 Ha        -683.72034178 eV
  | Hartree energy correction     :          -5.20673197 Ha        -141.68238567 eV
  | Entropy correction            :           0.00000000 Ha           0.00000000 eV
  | ---------------------------
  | Total energy                  :         -56.33689642 Ha       -1533.00495008 eV
  | Total energy, T -> 0          :         -56.33689642 Ha       -1533.00495008 eV  <-- do not rely on this value for anything but (periodic) metals
  | Electronic free energy        :         -56.33689642 Ha       -1533.00495008 eV

  Derived energy quantities:
  | Kinetic energy                :          68.30940258 Ha        1858.79341866 eV
  | Electrostatic energy          :        -104.70756669 Ha       -2849.23785735 eV
  | Energy correction for multipole
  | error in Hartree potential    :          -0.00589012 Ha          -0.16027841 eV
  | Sum of eigenvalues per atom                           :        -202.37352867 eV
  | Total energy (T->0) per atom                          :        -383.25123752 eV  <-- do not rely on this value for anything but (periodic) metals
  | Electronic free energy per atom                       :        -383.25123752 eV

  Self-consistency convergence accuracy:
  | Change of charge/spin density :  0.8842E-02  0.3786E-02
  | Change of sum of eigenvalues  : -0.1497E+01 eV
  | Change of total energy        :  0.6413E-01 eV

  End self-consistency iteration #     4       :  max(cpu_time)    wall_clock(cpu1)
  | Time for this iteration                    :        0.174 s           0.174 s
  | Charge density update                      :        0.043 s           0.043 s
  | Density mixing                             :        0.008 s           0.008 s
  | Hartree multipole update                   :        0.005 s           0.005 s
  | Hartree multipole summation                :        0.049 s           0.049 s
  | Integration                                :        0.068 s           0.068 s
  | Fock matrix evaluation                     :        0.000 s           0.001 s
  | Solution of K.-S. eqns.                    :        0.000 s           0.000 s
  | Total energy evaluation                    :        0.000 s           0.000 s

  Partial memory accounting:
  | Current value for overall tracked memory usage on task 0  :           0.025 MB
  | Peak value for overall tracked memory usage on task 0     :           0.260 MB after allocating wave
  | Largest tracked array allocation on task 0 so far         :           0.136 MB  when allocating gradient_basis_wave
  Note:  These values currently only include a subset of arrays which are explicitly tracked.
  The "true" memory usage will be greater.
------------------------------------------------------------

------------------------------------------------------------
          Begin self-consistency iteration #    5

  Date     :  20230430, Time     :  233048.796
------------------------------------------------------------
  Evaluating new KS density.
  Integration grid: deviation in total charge (<rho> - N_e) =  -5.329071E-15
  | <rho_up-rho_dn> = N_up-N_dn =      1.0000; <|rho_up-rho_dn|> =      1.0277
  Pulay mixing of updated and previous charge densities.

  Evaluating partitioned Hartree potential by multipole expansion.
  | Analytical far-field extrapolation by fixed multipoles:
  | Hartree multipole sum: apparent total charge =  -0.100040E+01
  Summing up the Hartree potential.
  Time summed over all CPUs for potential: real work        0.380 s, elapsed        0.388 s
  | RMS charge density error from multipole expansion :   0.518519E-02

  Integrating Hamiltonian matrix: batch-based integration.
  Time summed over all CPUs for integration: real work        0.528 s, elapsed        0.541 s
  Evaluating the exchange matrix ... 

  Updating Kohn-Sham eigenvalues and eigenvectors using ELSI and the ELPA eigensolver.
  Finished Cholesky decomposition
  | Time :     0.000 s
  Finished transformation to standard eigenproblem
  | Time :     0.000 s
  Starting LAPACK eigensolver
  Finished solving standard eigenproblem
  | Time :     0.000 s
  Finished back-transformation of eigenvectors
  | Time :     0.000 s
  Finished Cholesky decomposition
  | Time :     0.000 s
  Finished transformation to standard eigenproblem
  | Time :     0.000 s
  Starting LAPACK eigensolver
  Finished solving standard eigenproblem
  | Time :     0.000 s
  Finished back-transformation of eigenvectors
  | Time :     0.000 s
  Fixed spin moments - chemical potentials:
  | Chemical potential, spin up:    6.6032035370 eV.
  | Chemical potential, spin dn:    6.8751193269 eV.
  | Fixed spin moment: Difference in chemical potentials between spin channels:  -0.2719157900 eV.

  Current spin moment of the entire structure :
  | N = N_up - N_down :    1.00
  | S                 :    0.50
  | J                 :    2.00

  Highest occupied state (VBM) at      6.08089397 eV
  | Occupation number:      1.00000000
  | Spin channel:        1
 * WARNING: The VBM is higher than the internal energy zero!

  Lowest unoccupied state (CBM) at     8.60805078 eV
  | Occupation number:      0.00000000
  | Spin channel:        2

  Overall HOMO-LUMO gap:      2.52715680 eV.

  Total energy components:
  | Sum of eigenvalues            :         -29.71851304 Ha        -808.68188522 eV
  | XC energy correction          :          -4.24683328 Ha        -115.56221317 eV
  | XC potential correction       :           7.99169149 Ha         217.46498997 eV
  | Free-atom electrostatic energy:         -25.12626073 Ha        -683.72034178 eV
  | Hartree energy correction     :          -5.23516954 Ha        -142.45621116 eV
  | Entropy correction            :           0.00000000 Ha           0.00000000 eV
  | ---------------------------
  | Total energy                  :         -56.33508510 Ha       -1532.95566136 eV
  | Total energy, T -> 0          :         -56.33508510 Ha       -1532.95566136 eV  <-- do not rely on this value for anything but (periodic) metals
  | Electronic free energy        :         -56.33508510 Ha       -1532.95566136 eV

  Derived energy quantities:
  | Kinetic energy                :          68.30162643 Ha        1858.58181874 eV
  | Electrostatic energy          :        -104.69709359 Ha       -2848.95286980 eV
  | Energy correction for multipole
  | error in Hartree potential    :          -0.00595608 Ha          -0.16207327 eV
  | Sum of eigenvalues per atom                           :        -202.17047131 eV
  | Total energy (T->0) per atom                          :        -383.23891534 eV  <-- do not rely on this value for anything but (periodic) metals
  | Electronic free energy per atom                       :        -383.23891534 eV

  Self-consistency convergence accuracy:
  | Change of charge/spin density :  0.1740E-02  0.1615E-02
  | Change of sum of eigenvalues  :  0.8122E+00 eV
  | Change of total energy        :  0.4929E-01 eV

  End self-consistency iteration #     5       :  max(cpu_time)    wall_clock(cpu1)
  | Time for this iteration                    :        0.175 s           0.175 s
  | Charge density update                      :        0.043 s           0.042 s
  | Density mixing                             :        0.010 s           0.010 s
  | Hartree multipole update                   :        0.005 s           0.005 s
  | Hartree multipole summation                :        0.049 s           0.049 s
  | Integration                                :        0.068 s           0.068 s
  | Fock matrix evaluation                     :        0.000 s           0.001 s
  | Solution of K.-S. eqns.                    :        0.000 s           0.000 s
  | Total energy evaluation                    :        0.000 s           0.000 s

  Partial memory accounting:
  | Current value for overall tracked memory usage on task 0  :           0.025 MB
  | Peak value for overall tracked memory usage on task 0     :           0.260 MB after allocating wave
  | Largest tracked array allocation on task 0 so far         :           0.136 MB  when allocating gradient_basis_wave
  Note:  These values currently only include a subset of arrays which are explicitly tracked.
  The "true" memory usage will be greater.
------------------------------------------------------------

------------------------------------------------------------
          Begin self-consistency iteration #    6

  Date     :  20230430, Time     :  233048.971
------------------------------------------------------------
  Evaluating new KS density.
  Integration grid: deviation in total charge (<rho> - N_e) =  -8.881784E-15
  | <rho_up-rho_dn> = N_up-N_dn =      1.0000; <|rho_up-rho_dn|> =      1.0287
  Pulay mixing of updated and previous charge densities.

  Evaluating partitioned Hartree potential by multipole expansion.
  | Analytical far-field extrapolation by fixed multipoles:
  | Hartree multipole sum: apparent total charge =  -0.100034E+01
  Summing up the Hartree potential.
  Time summed over all CPUs for potential: real work        0.380 s, elapsed        0.388 s
  | RMS charge density error from multipole expansion :   0.518789E-02

  Integrating Hamiltonian matrix: batch-based integration.
  Time summed over all CPUs for integration: real work        0.526 s, elapsed        0.541 s
  Evaluating the exchange matrix ... 

  Updating Kohn-Sham eigenvalues and eigenvectors using ELSI and the ELPA eigensolver.
  Finished Cholesky decomposition
  | Time :     0.000 s
  Finished transformation to standard eigenproblem
  | Time :     0.000 s
  Starting LAPACK eigensolver
  Finished solving standard eigenproblem
  | Time :     0.000 s
  Finished back-transformation of eigenvectors
  | Time :     0.000 s
  Finished Cholesky decomposition
  | Time :     0.000 s
  Finished transformation to standard eigenproblem
  | Time :     0.000 s
  Starting LAPACK eigensolver
  Finished solving standard eigenproblem
  | Time :     0.000 s
  Finished back-transformation of eigenvectors
  | Time :     0.000 s
  Fixed spin moments - chemical potentials:
  | Chemical potential, spin up:    6.5975510732 eV.
  | Chemical potential, spin dn:    6.8684563099 eV.
  | Fixed spin moment: Difference in chemical potentials between spin channels:  -0.2709052368 eV.

  Current spin moment of the entire structure :
  | N = N_up - N_down :    1.00
  | S                 :    0.50
  | J                 :    2.00

  Highest occupied state (VBM) at      6.07757193 eV
  | Occupation number:      1.00000000
  | Spin channel:        1
 * WARNING: The VBM is higher than the internal energy zero!

  Lowest unoccupied state (CBM) at     8.60490997 eV
  | Occupation number:      0.00000000
  | Spin channel:        2

  Overall HOMO-LUMO gap:      2.52733803 eV.

  Total energy components:
  | Sum of eigenvalues            :         -29.72092027 Ha        -808.74738927 eV
  | XC energy correction          :          -4.24690606 Ha        -115.56419372 eV
  | XC potential correction       :           7.99142459 Ha         217.45772724 eV
  | Free-atom electrostatic energy:         -25.12626073 Ha        -683.72034178 eV
  | Hartree energy correction     :          -5.23264798 Ha        -142.38759625 eV
  | Entropy correction            :           0.00000000 Ha           0.00000000 eV
  | ---------------------------
  | Total energy                  :         -56.33531046 Ha       -1532.96179378 eV
  | Total energy, T -> 0          :         -56.33531046 Ha       -1532.96179378 eV  <-- do not rely on this value for anything but (periodic) metals
  | Electronic free energy        :         -56.33531046 Ha       -1532.96179378 eV

  Derived energy quantities:
  | Kinetic energy                :          68.29951870 Ha        1858.52446459 eV
  | Electrostatic energy          :        -104.69738963 Ha       -2848.96092524 eV
  | Energy correction for multipole
  | error in Hartree potential    :          -0.00596552 Ha          -0.16233004 eV
  | Sum of eigenvalues per atom                           :        -202.18684732 eV
  | Total energy (T->0) per atom                          :        -383.24044845 eV  <-- do not rely on this value for anything but (periodic) metals
  | Electronic free energy per atom                       :        -383.24044845 eV

  Self-consistency convergence accuracy:
  | Change of charge/spin density :  0.2641E-03  0.4936E-03
  | Change of sum of eigenvalues  : -0.6550E-01 eV
  | Change of total energy        : -0.6132E-02 eV

[...]
  The   1th iteration yields    0.668E-02   0.668E-02   0.000E+00 with the energy change of       0.00000000
  Screened coupling is invoked with    1.000000    1.000000    0.000000
  Initial energy  0.745E-02 0.745E-02 0.625-315, generated energy  0.745E-02 0.745E-02 0.000E+00
  The   1th iteration yields    0.745E-02   0.745E-02   0.000E+00 with the energy change of       0.00000000
  Screened coupling is invoked with    1.000000    1.000000    0.000000
  Initial energy  0.507E-02 0.507E-02 0.625-315, generated energy  0.507E-02 0.507E-02 0.000E+00
  The   1th iteration yields    0.507E-02   0.507E-02   0.000E+00 with the energy change of       0.00000000
  Screened coupling is invoked with    1.000000    1.000000    0.000000
  Initial energy  0.745E-02 0.745E-02 0.625-315, generated energy  0.745E-02 0.745E-02 0.000E+00
  The   1th iteration yields    0.745E-02   0.745E-02   0.000E+00 with the energy change of       0.00000000
  Screened coupling is invoked with    1.000000    1.000000    0.000000
  Initial energy  0.507E-02 0.507E-02 0.625-315, generated energy  0.507E-02 0.507E-02 0.000E+00
  The   1th iteration yields    0.507E-02   0.507E-02   0.000E+00 with the energy change of       0.00000000
  Screened coupling is invoked with    1.000000    1.000000    0.000000
  Initial energy  0.315E-02 0.315E-02 0.625-315, generated energy  0.315E-02 0.315E-02 0.000E+00
  The   1th iteration yields    0.315E-02   0.315E-02   0.000E+00 with the energy change of       0.00000000
  Screened coupling is invoked with    1.000000    1.000000    0.000000
  Initial energy  0.656E-03 0.315E-02 0.656E-03, generated energy  0.656E-03 0.000E+00 0.656E-03
  Screened coupling is invoked with    1.000000    1.000000    0.000000
  Initial energy  0.173E-03 0.315E-02 0.173E-03, generated energy  0.173E-03 0.000E+00 0.173E-03
  Screened coupling is invoked with    1.000000    1.000000    0.000000
  Initial energy  0.139E-03 0.315E-02 0.139E-03, generated energy  0.139E-03 0.000E+00 0.139E-03
  Screened coupling is invoked with    1.000000    1.000000    0.000000
  Initial energy  0.139E-03 0.315E-02 0.139E-03, generated energy  0.139E-03 0.000E+00 0.139E-03
  Screened coupling is invoked with    1.000000    1.000000    0.000000
  Initial energy  0.185E-03 0.315E-02 0.185E-03, generated energy  0.185E-03 0.000E+00 0.185E-03
  Screened coupling is invoked with    1.000000    1.000000    0.000000
  Initial energy  0.176E-03 0.315E-02 0.176E-03, generated energy  0.176E-03 0.000E+00 0.176E-03
  Screened coupling is invoked with    1.000000    1.000000    0.000000
  Initial energy  0.991E-02 0.315E-02 0.991E-02, generated energy  0.991E-02 0.000E+00 0.991E-02
  Screened coupling is invoked with    1.000000    1.000000    0.000000
  Initial energy  0.742E-02 0.315E-02 0.742E-02, generated energy  0.742E-02 0.000E+00 0.742E-02
  Screened coupling is invoked with    1.000000    1.000000    0.000000
  Initial energy  0.742E-02 0.315E-02 0.742E-02, generated energy  0.742E-02 0.000E+00 0.742E-02
  Screened coupling is invoked with    1.000000    1.000000    0.000000
  Initial energy  0.540E-02 0.315E-02 0.540E-02, generated energy  0.540E-02 0.000E+00 0.540E-02
  Screened coupling is invoked with    1.000000    1.000000    0.000000
  Initial energy  0.131E-03 0.315E-02 0.131E-03, generated energy  0.131E-03 0.000E+00 0.131E-03
  Screened coupling is invoked with    1.000000    1.000000    0.000000
  Initial energy  0.900E-02 0.315E-02 0.900E-02, generated energy  0.900E-02 0.000E+00 0.900E-02
  The   1th iteration yields    0.900E-02   0.000E+00   0.900E-02 with the energy change of       0.00000000
  Screened coupling is invoked with    1.000000    1.000000    0.000000
  Initial energy  0.242E-01 0.315E-02 0.242E-01, generated energy  0.242E-01 0.000E+00 0.242E-01
  The   1th iteration yields    0.242E-01   0.000E+00   0.242E-01 with the energy change of       0.00000000
  Screened coupling is invoked with    1.000000    1.000000    0.000000
  Initial energy  0.106E-01 0.315E-02 0.106E-01, generated energy  0.106E-01 0.000E+00 0.106E-01
  The   1th iteration yields    0.106E-01   0.000E+00   0.106E-01 with the energy change of       0.00000000
  Screened coupling is invoked with    1.000000    1.000000    0.000000
  Initial energy  0.988E-02 0.315E-02 0.988E-02, generated energy  0.988E-02 0.000E+00 0.988E-02
  The   1th iteration yields    0.988E-02   0.000E+00   0.988E-02 with the energy change of       0.00000000
  Screened coupling is invoked with    1.000000    1.000000    0.000000
  Initial energy  0.131E-03 0.315E-02 0.131E-03, generated energy  0.131E-03 0.000E+00 0.131E-03
  Screened coupling is invoked with    1.000000    1.000000    0.000000
  Initial energy  0.900E-02 0.315E-02 0.900E-02, generated energy  0.900E-02 0.000E+00 0.900E-02
  The   1th iteration yields    0.900E-02   0.000E+00   0.900E-02 with the energy change of       0.00000000
  Screened coupling is invoked with    1.000000    1.000000    0.000000
  Initial energy  0.106E-01 0.315E-02 0.106E-01, generated energy  0.106E-01 0.000E+00 0.106E-01
  The   1th iteration yields    0.106E-01   0.000E+00   0.106E-01 with the energy change of       0.00000000
  Screened coupling is invoked with    1.000000    1.000000    0.000000
  Initial energy  0.242E-01 0.315E-02 0.242E-01, generated energy  0.242E-01 0.000E+00 0.242E-01
  The   1th iteration yields    0.242E-01   0.000E+00   0.242E-01 with the energy change of       0.00000000
  Screened coupling is invoked with    1.000000    1.000000    0.000000
  Initial energy  0.988E-02 0.315E-02 0.988E-02, generated energy  0.988E-02 0.000E+00 0.988E-02
  The   1th iteration yields    0.988E-02   0.000E+00   0.988E-02 with the energy change of       0.00000000
  Screened coupling is invoked with    1.000000    1.000000    0.000000
  Initial energy  0.187E-03 0.315E-02 0.187E-03, generated energy  0.187E-03 0.000E+00 0.187E-03
  Screened coupling is invoked with    1.000000    1.000000    0.000000
  Initial energy  0.661E-02 0.315E-02 0.661E-02, generated energy  0.661E-02 0.000E+00 0.661E-02
  Screened coupling is invoked with    1.000000    1.000000    0.000000
  Initial energy  0.955E-02 0.315E-02 0.955E-02, generated energy  0.955E-02 0.000E+00 0.955E-02
  The   1th iteration yields    0.955E-02   0.000E+00   0.955E-02 with the energy change of       0.00000000
  Screened coupling is invoked with    1.000000    1.000000    0.000000
  Initial energy  0.955E-02 0.315E-02 0.955E-02, generated energy  0.955E-02 0.000E+00 0.955E-02
  The   1th iteration yields    0.955E-02   0.000E+00   0.955E-02 with the energy change of       0.00000000
  Screened coupling is invoked with    1.000000    1.000000    0.000000
  Initial energy  0.223E-01 0.315E-02 0.223E-01, generated energy  0.223E-01 0.000E+00 0.223E-01
  The   1th iteration yields    0.223E-01   0.000E+00   0.223E-01 with the energy change of       0.00000000
  Screened coupling is invoked with    1.000000    1.000000    0.000000
  Initial energy  0.711E-04 0.315E-02 0.711E-04, generated energy  0.711E-04 0.000E+00 0.711E-04
  Screened coupling is invoked with    1.000000    1.000000    0.000000
  Initial energy  0.278E-02 0.315E-02 0.278E-02, generated energy  0.278E-02 0.000E+00 0.278E-02
  Screened coupling is invoked with    1.000000    1.000000    0.000000
  Initial energy  0.649E-02 0.315E-02 0.649E-02, generated energy  0.649E-02 0.000E+00 0.649E-02
  The   1th iteration yields    0.649E-02   0.000E+00   0.649E-02 with the energy change of       0.00000000
  Screened coupling is invoked with    1.000000    1.000000    0.000000
  Initial energy  0.649E-02 0.315E-02 0.649E-02, generated energy  0.649E-02 0.000E+00 0.649E-02
  The   1th iteration yields    0.649E-02   0.000E+00   0.649E-02 with the energy change of       0.00000000
  Screened coupling is invoked with    1.000000    1.000000    0.000000
  Initial energy  0.532E-02 0.315E-02 0.532E-02, generated energy  0.531E-02 0.000E+00 0.531E-02
  The   1th iteration yields    0.531E-02   0.000E+00   0.531E-02 with the energy change of       0.00000000
  Screened coupling is invoked with    1.000000    1.000000    0.000000
  Initial energy  0.236E-04 0.236E-04 0.532E-02, generated energy  0.236E-04 0.236E-04 0.000E+00
  Screened coupling is invoked with    1.000000    1.000000    0.000000
  Initial energy  0.148E-03 0.148E-03 0.532E-02, generated energy  0.148E-03 0.148E-03 0.000E+00
  Screened coupling is invoked with    1.000000    1.000000    0.000000
  Initial energy  0.148E-03 0.148E-03 0.532E-02, generated energy  0.148E-03 0.148E-03 0.000E+00
  Screened coupling is invoked with    1.000000    1.000000    0.000000
  Initial energy  0.174E-03 0.174E-03 0.532E-02, generated energy  0.174E-03 0.174E-03 0.000E+00
  Screened coupling is invoked with    1.000000    1.000000    0.000000
  Initial energy  0.238E-02 0.238E-02 0.532E-02, generated energy  0.238E-02 0.238E-02 0.000E+00
  Screened coupling is invoked with    1.000000    1.000000    0.000000
  Initial energy  0.238E-02 0.238E-02 0.532E-02, generated energy  0.238E-02 0.238E-02 0.000E+00
  Screened coupling is invoked with    1.000000    1.000000    0.000000
  Initial energy  0.245E-02 0.245E-02 0.532E-02, generated energy  0.245E-02 0.245E-02 0.000E+00
  Screened coupling is invoked with    1.000000    1.000000    0.000000
  Initial energy  0.663E-02 0.663E-02 0.532E-02, generated energy  0.663E-02 0.663E-02 0.000E+00
  The   1th iteration yields    0.663E-02   0.663E-02   0.000E+00 with the energy change of       0.00000000
  Screened coupling is invoked with    1.000000    1.000000    0.000000
  Initial energy  0.763E-02 0.763E-02 0.532E-02, generated energy  0.763E-02 0.763E-02 0.000E+00
  The   1th iteration yields    0.763E-02   0.763E-02   0.000E+00 with the energy change of       0.00000000
  Screened coupling is invoked with    1.000000    1.000000    0.000000
  Initial energy  0.763E-02 0.763E-02 0.532E-02, generated energy  0.763E-02 0.763E-02 0.000E+00
  The   1th iteration yields    0.763E-02   0.763E-02   0.000E+00 with the energy change of       0.00000000
---------------------------------------------
 
 
 
          ---------------------------------------------------
          | sBGE2 calculation comes to finish ...  
 
          ---------------------------------------------------
          | Total time for calculating sBGE2 correction              :        0.003 s

---------------------------------------------
  | DHDF/DFT Energy                :        -52.33281519 Ha      -1424.04835621 eV
  | Exx contribution               :         -3.92274203 Ha       -106.74324176 eV
  | PT2 contribution               :         -0.05215809 Ha         -1.41929392 eV
  | sBGE2 contribution             :         -0.05214655 Ha         -1.41897982 eV
---------------------------------------------
  | Total ZRPS energy              :        -56.30770378 Ha      -1532.21057779 eV
  | Total ZRPS(DH) energy          :        -56.30771532 Ha      -1532.21089189 eV
---------------------------------------------

------------------------------------------------------------------------------
  Final output of selected total energy values:

  The following output summarizes some interesting total energy values
  at the end of a run (AFTER all relaxation, molecular dynamics, etc.).

  | Total energy of the DFT / Hartree-Fock s.c.f. calculation      :          -1424.048356212 eV
  | Final zero-broadening corrected energy (caution - metals only) :          -1424.048356212 eV
  | Total energy after the post-s.c.f. correlation calculation     :          -1425.948610591 eV
  | For reference only, the value of 1 Hartree used in FHI-aims is :             27.211384500 eV

  Before relying on these values, please be sure to understand exactly which
  total energy value is referred to by a given number. Different objects may
  all carry the same name 'total energy'. Definitions:

  Total energy of the DFT / Hartree-Fock s.c.f. calculation:
  | Note that this energy does not include ANY quantities calculated after the
  | s.c.f. cycle, in particular not ANY RPA, MP2, etc. many-body perturbation terms.

  Final zero-broadening corrected energy:
  | For metallic systems only, a broadening of the occupation numbers at the Fermi
  | level can be extrapolated back to zero broadening by an electron-gas inspired
  | formula. For all systems that are not real metals, this value can be
  | meaningless and should be avoided.

  Total energy of the post-s.c.f. correlation calculation        :
  | Resolution of identity used for the 2-electron Coulomb operator:          RI_V
  | The actual meaning of this energy depends on the setting for the 'total_energy_method'
  | keyword (MP2, RPA, rPT2, etc). If not sure, compare to the results listed above.

------------------------------------------------------------------------------
  Methods described in the following list of references were used in this FHI-aims run.
  If you publish the results, please make sure to cite these reference if they apply.
  FHI-aims is an academic code, and for our developers (often, Ph.D. students
  and postdocs), scientific credit in the community is essential.
  Thank you for helping us!

  For any use of FHI-aims, please cite:

    Volker Blum, Ralf Gehrke, Felix Hanke, Paula Havu, Ville Havu,
    Xinguo Ren, Karsten Reuter, and Matthias Scheffler
    'Ab initio molecular simulations with numeric atom-centered orbitals'
    Computer Physics Communications 180, 2175-2196 (2009)
    http://dx.doi.org/10.1016/j.cpc.2009.06.022


  For Hartree-Fock, hybrid functionals, or many-body perturbation theory used in your run, please cite:

    Xinguo Ren, Patrick Rinke, Volker Blum, Juergen Wieferink, Alex Tkatchenko,
    Andrea Sanfilippo, Karsten Reuter, and Matthias Scheffler,
    'Resolution-of-identity approach to Hartree-Fock, hybrid density functionals,
    RPA, MP2, and GW with numeric atom-centered orbital basis functions'
    New Journal of Physics 14, 053020 (2012).
    http://dx.doi.org/10.1088/1367-2630/14/5/053020


  The scalable eigensolver library ELPA was used in your run.
  ELPA is essential especially for large systems on hundreds or thousands of CPUs.
  For ELPA, please cite:

    Andreas Marek, Volker Blum, Rainer Johanni, Ville Havu, Bruno Lang,
    Thomas Auckenthaler, Alexander Heinecke, Hans-Joachim Bungartz, and Hermann Lederer,
    'The ELPA Library - Scalable Parallel Eigenvalue Solutions
    for Electronic Structure Theory and Computational Science'
    The Journal of Physics: Condensed Matter 26, 213201 (2014).
    http://dx.doi.org/10.1088/0953-8984/26/21/213201


  The ELSI infrastructure was used in your run to solve the Kohn-Sham electronic structure.
  Please check out http://elsi-interchange.org to learn more.
  If scalability is important for your project, please acknowledge ELSI by citing:

    V. W-z. Yu, F. Corsetti, A. Garcia, W. P. Huhn, M. Jacquelin, W. Jia,
    B. Lange, L. Lin, J. Lu, W. Mi, A. Seifitokaldani, A. Vazquez-Mayagoitia,
    C. Yang, H. Yang, and V. Blum
    'ELSI: A unified software interface for Kohn-Sham electronic structure solvers'
    Computer Physics Communications 222, 267-285 (2018).
    http://dx.doi.org/10.1016/j.cpc.2017.09.007


  For the real-space grid partitioning and parallelization used in this calculation, please cite:

    Ville Havu, Volker Blum, Paula Havu, and Matthias Scheffler,
    'Efficient O(N) integration for all-electron electronic structure calculation'
    'using numerically tabulated basis functions'
    Journal of Computational Physics 228, 8367-8379 (2009).
    http://dx.doi.org/10.1016/j.jcp.2009.08.008

  Of course, there are many other important community references, e.g., those cited in the
  above references. Our list is limited to references that describe implementations in the
  FHI-aims code. The reason is purely practical (length of this list) - please credit others as well.

 * Warning - angular integration grids had to be adjusted for use with RI_method 'V'.
 * Background: You are using an electronic structure method that requires RI_method 'V'
 * for the resolution of identity of the Coulomb operator. (See Ren et al.,
 * New J. Phys 2012 for details.) This method requires three-center integrations
 * to be carried out on FHI-aims' normal angular and radial integration grids.
 * (See FHI-aims CPC Blum et al. 2009, p. 2183 for grid details and references.)
 * One of the angular grids specified in your control.in file was not large
 * enough for the maximal angular momenta of orbital and product basis functions
 * for its species.
 * This can lead to atomic total energy errors which cancel in energy differences.
 * Effective Sep 22, 2014, we have changed the default behavior of the code to
 * simply 'upgrade' the angular grids internally to a safe setting in this case.
 * Please be sure to NOT mix total energies from before and after the change.

------------------------------------------------------------
          Leaving FHI-aims.
          Date     :  20230430, Time     :  233050.475

          Computational steps:
          | Number of self-consistency cycles          :           13
          | Number of SCF (re)initializations          :            1

          Detailed time accounting                     :  max(cpu_time)    wall_clock(cpu1)
          | Total time                                 :        3.481 s           3.499 s
          | Preparation time                           :        0.143 s           0.143 s
          | Boundary condition initalization           :        0.000 s           0.000 s
          | Grid partitioning                          :        0.070 s           0.071 s
          | Preloading free-atom quantities on grid    :        0.024 s           0.024 s
          | Free-atom superposition energy             :        0.026 s           0.025 s
          | Total time for integrations                :        0.973 s           0.977 s
          | Product basis setup: Total time            :        0.655 s           0.658 s
          | Product basis: | 3-center integrations     :(       0.585 s)  (       0.586 s)
          | Product basis: | 2-center integrations     :(       0.042 s)  (       0.041 s)
          | Product basis: | 2-center linear algebra   :(       0.007 s)  (       0.007 s)
          | Product basis: | 3-center x 2-center       :(       0.004 s)  (       0.004 s)
          | Total time evaluating exchange matrix      :        0.004 s           0.004 s
          | Transforming ovlp_3fn to ovlp_3KS          :        0.000 s           0.000 s
          | Total time for solution of K.-S. equations :        0.008 s           0.010 s
          | Total time for density update              :        0.560 s           0.562 s
          | Total time for mixing                      :        0.164 s           0.164 s
          | Total time for Hartree multipole update    :        0.071 s           0.071 s
          | Total time for Hartree multipole sum       :        0.641 s           0.641 s
          | Total time for total energy evaluation     :        0.001 s           0.000 s

          Partial memory accounting:
          | Residual value for overall tracked memory usage across tasks :           0.000 MB (should be 0.000 MB)
          | Peak values for overall tracked memory usage (after allocating wave):
          |   Minimum:        0.260 MB (on task 1)
          |   Maximum:        0.260 MB (on task 1)
          |   Average:        0.260 MB
          | Largest tracked array allocation (gradient_basis_wave):
          |   Minimum:        0.136 MB (on task 1)
          |   Maximum:        0.136 MB (on task 1)
          |   Average:        0.136 MB
          Note:  These values currently only include a subset of arrays which are explicitly tracked.
          The "true" memory usage will be greater.

          Have a nice day.
------------------------------------------------------------
