HCl_example generated by REST
SP        RHF                                                         CC-PVTZ
Number of atoms                            I                2
Charge                                     I                0
Multiplicity                               I                1
Number of electrons                        I               18
Number of alpha electrons                  I                9
Number of beta electrons                   I                9
Number of basis functions                  I               48
Number of independent functions            I               48
Atomic numbers                             I   N=           2
           1          17
Nuclear charges                            R   N=           2
  1.00000000E+00  1.70000000E+01
Current cartesian coordinates              R   N=           6
  0.00000000E+00  0.00000000E+00  0.00000000E+00  2.39995219E+00  0.00000000E+00
  0.00000000E+00
Real atomic weights                        R   N=           2
  1.00794000E+00  3.54530000E+01
MicOpt                                     I   N=           2
          -1          -1
Number of contracted shells                I               18
Number of primitive shells                 I              136
Pure/Cartesian d shells                    I                3
Pure/Cartesian f shells                    I                1
Highest angular momentum                   I                3
Largest degree of contraction              I               15
Shell types                                I   N=          18
           0           0           0           1           1          -2
           0           0           0           0           0           1
           1           1           1          -2          -2          -3
Number of primitives per shell             I   N=          18
           5           5           5           2           2           1
          15          15          15          15          15           9
           9           9           9           2           2           1
Shell to atom map                          I   N=          18
           1           1           1           1           1           1
           2           2           2           2           2           2
           2           2           2           2           2           2
Primitive exponents                        R   N=         136
  3.38700000E+01  5.09500000E+00  1.15900000E+00  3.25800000E-01  1.02700000E-01
  3.38700000E+01  5.09500000E+00  1.15900000E+00  3.25800000E-01  1.02700000E-01
  3.38700000E+01  5.09500000E+00  1.15900000E+00  3.25800000E-01  1.02700000E-01
  1.40700000E+00  3.88000000E-01  1.40700000E+00  3.88000000E-01  1.05700000E+00
  4.56100000E+05  6.83300000E+04  1.55500000E+04  4.40500000E+03  1.43900000E+03
  5.20400000E+02  2.03100000E+02  8.39600000E+01  3.62000000E+01  1.58300000E+01
  6.33400000E+00  2.69400000E+00  9.76800000E-01  4.31300000E-01  1.62500000E-01
  4.56100000E+05  6.83300000E+04  1.55500000E+04  4.40500000E+03  1.43900000E+03
  5.20400000E+02  2.03100000E+02  8.39600000E+01  3.62000000E+01  1.58300000E+01
  6.33400000E+00  2.69400000E+00  9.76800000E-01  4.31300000E-01  1.62500000E-01
  4.56100000E+05  6.83300000E+04  1.55500000E+04  4.40500000E+03  1.43900000E+03
  5.20400000E+02  2.03100000E+02  8.39600000E+01  3.62000000E+01  1.58300000E+01
  6.33400000E+00  2.69400000E+00  9.76800000E-01  4.31300000E-01  1.62500000E-01
  4.56100000E+05  6.83300000E+04  1.55500000E+04  4.40500000E+03  1.43900000E+03
  5.20400000E+02  2.03100000E+02  8.39600000E+01  3.62000000E+01  1.58300000E+01
  6.33400000E+00  2.69400000E+00  9.76800000E-01  4.31300000E-01  1.62500000E-01
  4.56100000E+05  6.83300000E+04  1.55500000E+04  4.40500000E+03  1.43900000E+03
  5.20400000E+02  2.03100000E+02  8.39600000E+01  3.62000000E+01  1.58300000E+01
  6.33400000E+00  2.69400000E+00  9.76800000E-01  4.31300000E-01  1.62500000E-01
  6.63300000E+02  1.56800000E+02  4.99800000E+01  1.84200000E+01  7.24000000E+00
  2.92200000E+00  1.02200000E+00  3.81800000E-01  1.30100000E-01  6.63300000E+02
  1.56800000E+02  4.99800000E+01  1.84200000E+01  7.24000000E+00  2.92200000E+00
  1.02200000E+00  3.81800000E-01  1.30100000E-01  6.63300000E+02  1.56800000E+02
  4.99800000E+01  1.84200000E+01  7.24000000E+00  2.92200000E+00  1.02200000E+00
  3.81800000E-01  1.30100000E-01  6.63300000E+02  1.56800000E+02  4.99800000E+01
  1.84200000E+01  7.24000000E+00  2.92200000E+00  1.02200000E+00  3.81800000E-01
  1.30100000E-01  1.04600000E+00  3.44000000E-01  1.04600000E+00  3.44000000E-01
  7.06000000E-01
Contraction coefficients                   R   N=         136
  6.06799922E-03  4.53079942E-02  2.02821974E-01  5.03902935E-01  3.83420951E-01
  0.00000000E+00  0.00000000E+00  0.00000000E+00  1.00000000E+00  0.00000000E+00
  0.00000000E+00  0.00000000E+00  0.00000000E+00  0.00000000E+00  1.00000000E+00
  1.00000000E+00  0.00000000E+00  0.00000000E+00  1.00000000E+00  1.00000000E+00
  4.92970068E-05  3.83029053E-04  2.00854028E-03  8.38558115E-03  2.94703041E-02
  8.78325121E-02  2.11473029E-01  3.65364050E-01  3.40884047E-01  1.02133014E-01
  3.11675043E-03  1.05751015E-03 -3.78000052E-04  1.56136022E-04 -5.14126071E-05
 -1.38304094E-05 -1.07279073E-04 -5.65083383E-04 -2.36135160E-03 -8.45886573E-03
 -2.59638176E-02 -6.86362465E-02 -1.41874096E-01 -1.99319135E-01 -1.95662133E-02
  4.99741339E-01  5.63736382E-01  7.90325535E-02 -8.35091566E-03  2.32456157E-03
  4.18546193E-06  3.24395149E-05  1.71105079E-04  7.14176328E-04  2.56705118E-03
  7.88552363E-03  2.10867097E-02  4.42264203E-02  6.51670300E-02  6.03012277E-03
 -2.06495095E-01 -4.05871187E-01  7.59558349E-02  7.25661334E-01  3.94423181E-01
  0.00000000E+00  0.00000000E+00  0.00000000E+00  0.00000000E+00  0.00000000E+00
  0.00000000E+00  0.00000000E+00  0.00000000E+00  0.00000000E+00  0.00000000E+00
  0.00000000E+00  0.00000000E+00  1.00000000E+00  0.00000000E+00  0.00000000E+00
  0.00000000E+00  0.00000000E+00  0.00000000E+00  0.00000000E+00  0.00000000E+00
  0.00000000E+00  0.00000000E+00  0.00000000E+00  0.00000000E+00  0.00000000E+00
  0.00000000E+00  0.00000000E+00  0.00000000E+00  0.00000000E+00  1.00000000E+00
  2.40448030E-03  1.92148024E-02  8.85097110E-02  2.56020032E-01  4.36927055E-01
  3.50334044E-01  5.85495073E-02 -4.58423057E-03  2.26970028E-03 -6.52144751E-04
 -5.19444802E-03 -2.46937906E-02 -7.28166722E-02 -1.34029949E-01 -9.47741638E-02
  2.62288900E-01  5.64666784E-01  3.41249870E-01  0.00000000E+00  0.00000000E+00
  0.00000000E+00  0.00000000E+00  0.00000000E+00  0.00000000E+00  1.00000000E+00
  0.00000000E+00  0.00000000E+00  0.00000000E+00  0.00000000E+00  0.00000000E+00
  0.00000000E+00  0.00000000E+00  0.00000000E+00  0.00000000E+00  0.00000000E+00
  1.00000000E+00  1.00000000E+00  0.00000000E+00  0.00000000E+00  1.00000000E+00
  1.00000000E+00
Coordinates of each shell                  R   N=          54
  0.00000000E+00  0.00000000E+00  0.00000000E+00  0.00000000E+00  0.00000000E+00
  0.00000000E+00  0.00000000E+00  0.00000000E+00  0.00000000E+00  0.00000000E+00
  0.00000000E+00  0.00000000E+00  0.00000000E+00  0.00000000E+00  0.00000000E+00
  0.00000000E+00  0.00000000E+00  0.00000000E+00  2.39995219E+00  0.00000000E+00
  0.00000000E+00  2.39995219E+00  0.00000000E+00  0.00000000E+00  2.39995219E+00
  0.00000000E+00  0.00000000E+00  2.39995219E+00  0.00000000E+00  0.00000000E+00
  2.39995219E+00  0.00000000E+00  0.00000000E+00  2.39995219E+00  0.00000000E+00
  0.00000000E+00  2.39995219E+00  0.00000000E+00  0.00000000E+00  2.39995219E+00
  0.00000000E+00  0.00000000E+00  2.39995219E+00  0.00000000E+00  0.00000000E+00
  2.39995219E+00  0.00000000E+00  0.00000000E+00  2.39995219E+00  0.00000000E+00
  0.00000000E+00  2.39995219E+00  0.00000000E+00  0.00000000E+00
Num ILSW                                   I              100
ILSW                                       I   N=         100
           0           0           0           0           2           0
           0           0           0           0           0          -1
           5           0           0           0           0           0
           0           0           0           0           0           0
           1           1           0           0           0           0
           0           0      100000           0          -1           0
           0           0           0           0           0           0
           0           0           0           1           0           0
           0 -2000000000           1           0           0           0
           0           0           4          52           0           0
           0           0           0           0           0           0
           0           0           0           2           0           1
           0           0           0           0           0           0
           0           0           0           0           0           0
           0           0           0           0           0           0
           0           0           0           0           0           0
           0           0           0           0
SCF Energy                                 R      -4.601039658342323E+02
Total Energy                               R      -4.601039658342323E+02
Alpha Orbital Energies                     R   N=          48
 -1.04848674E+02 -1.05726990E+01 -8.03763456E+00 -8.03542556E+00 -8.03542556E+00
 -1.11663522E+00 -6.24726706E-01 -4.75485942E-01 -4.75485942E-01  1.25582499E-01
  3.28841821E-01  4.90526858E-01  4.90526858E-01  4.97310613E-01  5.66022031E-01
  5.66022031E-01  6.58189447E-01  6.58189447E-01  7.24750972E-01  9.50238753E-01
  1.07875397E+00  1.07875397E+00  1.50113621E+00  2.15267476E+00  2.19424598E+00
  2.19424598E+00  2.23658734E+00  2.23658734E+00  2.33832810E+00  2.33832810E+00
  2.40791967E+00  2.40791967E+00  2.43101011E+00  2.54451473E+00  2.54451473E+00
  2.60742245E+00  2.60742245E+00  2.73878495E+00  3.22038149E+00  3.58384721E+00
  3.58384721E+00  3.95465732E+00  3.95465732E+00  4.32561931E+00  4.41622716E+00
  4.41622716E+00  4.75905230E+00  6.28867057E+00
Alpha MO coefficients                      R   N=        2304
 -3.98374176E-07 -1.25317621E-04  1.06951972E-05 -9.80555172E-06  1.16699380E-13
  3.11430857E-13 -7.37295650E-05  2.37691796E-13  6.34357782E-13  5.93794193E-06
  6.21324780E-13  3.66954678E-17 -1.02848171E-05  2.32810852E-13  1.00001390E+00
  7.56699902E-05  1.30131959E-04 -7.04759110E-05 -1.50940825E-05 -1.28148258E-04
 -1.78025500E-11 -4.75084594E-11 -2.25509769E-04 -1.07624433E-11 -2.87210415E-11
  1.28462941E-04  1.21397674E-11  3.23965936E-11  7.60919818E-05  5.78023484E-12
  1.54253227E-11 -4.09566462E-06  5.57553668E-12  4.37782624E-16  7.09389921E-06
  2.08929011E-12 -2.57131541E-05  1.33132506E-13 -7.18499770E-17  4.45364893E-05
  4.98745100E-14 -7.26890106E-13  1.02124356E-05 -1.11204454E-13  9.38588087E-13
  1.05909095E-15 -1.31841977E-05  4.30757267E-13  1.17141616E-03  2.38095367E-04
 -8.86661183E-04  1.90340481E-05 -1.07135219E-12 -2.85902276E-12  3.32120334E-04
 -4.67664094E-11 -1.24802149E-10  9.09089916E-05 -5.85370673E-12  6.39352926E-15
 -1.57458992E-04 -2.19352628E-12 -1.09770244E-04  9.99340541E-01 -4.76534637E-04
  6.80337294E-04  2.21778199E-04 -3.27760343E-03 -1.12024008E-09 -2.98949969E-09
  1.54029605E-03  2.57750771E-10  6.87840562E-10 -1.50818564E-03 -3.02835031E-10
 -8.08153791E-10 -7.05721608E-04 -1.21708988E-10 -3.24795796E-10 -3.18898632E-04
  4.00177705E-10  4.16907669E-14  5.52348633E-04  1.49956438E-10  3.08723607E-04
 -3.09061848E-10 -2.18999089E-14 -5.34724972E-04 -1.15813043E-10  8.33018106E-12
  2.21300665E-05  1.27388521E-12 -1.07546376E-11 -2.99345421E-14 -2.85697930E-05
 -4.93580485E-12  1.67234116E-03  1.79448537E-03 -8.39295689E-04 -2.50510169E-04
 -5.25636188E-12 -1.40274020E-11  1.51908839E-03 -1.33345107E-11 -3.55848137E-11
  2.01360134E-04  4.81431268E-11  3.13907449E-15 -3.48765983E-04  1.80402357E-11
 -3.27086000E-04 -5.64993870E-03 -6.88852915E-04  1.84403855E-03 -1.16201786E-03
 -9.97837791E-01 -7.02616355E-08 -1.87505404E-07  5.67047326E-03  4.48993148E-10
  1.19819739E-09 -3.69027025E-03 -5.08180392E-10 -1.35613980E-09 -1.05645343E-03
 -1.70679737E-10 -4.55478919E-10 -4.59497329E-04  4.79212809E-10 -2.38516928E-14
  7.95872720E-04  1.79572148E-10  6.68220935E-04 -1.19100840E-10  6.64364810E-14
 -1.15739261E-03 -4.46298092E-11  8.04967940E-11  6.77634673E-05  1.23143898E-11
 -1.03920908E-10 -1.05649008E-14 -8.74822601E-05 -4.76933752E-11  2.11043115E-10
 -6.34962545E-10 -1.23295940E-10 -1.09753571E-10 -2.11968720E-05  2.99169875E-05
 -3.32934270E-10 -6.91216436E-05  9.75573824E-05  7.30728074E-11 -5.03275143E-05
 -4.40220571E-13 -1.23227696E-10  3.56581985E-05  1.53936482E-10  2.37610400E-09
  9.32578354E-10 -8.14589387E-10 -1.69199061E-10 -1.13416061E-07 -5.78319958E-01
  8.16233214E-01 -1.17500511E-09  6.99675494E-04 -9.87512828E-04  1.00118210E-09
  3.84841761E-04 -5.43160621E-04  4.93537126E-10  1.37400028E-04 -1.93924600E-04
 -6.01502579E-10 -4.30634907E-04  1.19917157E-10  1.32580675E-10  3.05114711E-04
  1.59853114E-10  2.47598323E-04 -6.18540140E-11  1.92119247E-10 -1.75429092E-04
 -6.69111965E-05  1.47506478E-10  1.93542831E-05  8.63819833E-05 -1.49361649E-11
 -9.79597386E-11 -7.49588160E-05  3.11245307E-10 -9.36454482E-10 -1.81836525E-10
 -1.61865335E-10  2.99169875E-05  2.11968720E-05 -4.91018865E-10  9.75573824E-05
  6.91216436E-05  1.06017750E-10 -3.56581985E-05  1.66906984E-12 -1.82747582E-10
 -5.03275143E-05  2.27027891E-10  3.50431852E-09  1.37537883E-09 -1.20136927E-09
 -2.49533949E-10 -1.67265218E-07  8.16233214E-01  5.78319958E-01 -1.73292453E-09
 -9.87512828E-04 -6.99675495E-04  1.47656375E-09 -5.43160621E-04 -3.84841761E-04
  7.27876998E-10 -1.93924600E-04 -1.37400028E-04 -4.10291097E-10 -3.05114711E-04
 -4.54625817E-10  4.70816805E-10 -4.30634907E-04 -1.01883076E-11  1.75429092E-04
  2.34496122E-10  1.41348847E-10  2.47598323E-04 -4.74081178E-05  1.63329402E-10
 -2.73163816E-05  6.12036169E-05  5.66262951E-11 -1.86466558E-10  1.05795891E-04
  3.64871362E-01 -7.97291076E-02 -1.28284637E-01  1.14405870E-02  2.90855745E-11
  7.76183123E-11  1.63801162E-02 -1.73310930E-09 -4.62502398E-09 -1.58306596E-03
 -3.98327470E-10  1.51270958E-13  2.74195067E-03 -1.49263086E-10 -2.08054974E-04
 -5.39038663E-03  9.21683944E-01 -4.86904802E-03 -1.96280185E-02  9.04128187E-03
  2.37061226E-10  6.32631157E-10 -8.63284487E-02  2.85172506E-09  7.61021069E-09
 -2.89711733E-03 -2.15049200E-11 -5.73937871E-11  2.33956307E-02 -8.71315012E-10
 -2.32521979E-09 -7.82216251E-03 -6.65167582E-11  8.79097241E-14  1.35483829E-02
 -2.49265303E-11 -4.82709689E-03 -1.70392880E-09  3.86803382E-13  8.36077707E-03
 -6.38503331E-10  9.02931773E-10  4.00225672E-03  1.38114434E-10 -1.16569434E-09
 -1.12998703E-12 -5.16689121E-03 -5.34986991E-10 -6.43660745E-01  4.93327261E-02
  1.76001523E-01 -1.33612985E-02 -2.88283915E-10 -7.69321515E-10 -2.51331935E-02
  2.15431553E-09  5.74906908E-09  2.32702618E-03  2.94623697E-11  1.63240159E-13
 -4.03052757E-03  1.10399988E-11 -1.27929421E-03 -2.26414945E-03  2.84994433E-01
  7.18826587E-03  1.22390381E-01 -2.13093544E-02  1.22262458E-10  3.26271789E-10
  7.29597905E-01 -1.96094707E-08 -5.23303361E-08  1.37439546E-02 -1.01911481E-09
 -2.71963508E-09 -7.17190462E-02  2.50944135E-09  6.69676519E-09  2.06462706E-02
 -8.13307851E-09 -2.26444430E-12 -3.57603897E-02 -3.04766259E-09  1.84497625E-02
 -1.62397011E-08 -5.21826322E-12 -3.19559261E-02 -6.08541475E-09 -1.84274491E-09
 -7.00460817E-03 -2.81908947E-10  2.37896914E-09  1.58553147E-13  9.04291026E-03
  1.09180802E-09  2.69165699E-09  6.34734066E-10  1.02788262E-09  2.01150002E-11
 -5.58535248E-03  1.94061890E-03  1.06469274E-10 -2.34079556E-02  8.13304466E-03
  9.23101627E-11  1.10976698E-03 -1.36207723E-10  6.62930935E-11 -3.19405308E-03
  2.04598336E-11  7.50245474E-11 -9.87138090E-10 -1.05443469E-10 -1.52686831E-09
  1.40669427E-10  2.57925662E-03 -8.96157256E-04  1.34902509E-09 -9.10597609E-01
  3.16385212E-01 -3.12403796E-11 -2.96829637E-03  1.03132829E-03  7.39618445E-10
 -2.68108221E-02  9.31536343E-03 -1.74753321E-09 -1.82220812E-03  2.15567096E-09
 -5.52753715E-10  5.24455093E-03 -1.53110062E-09 -3.67652626E-03  1.76667596E-09
 -2.81680308E-10  1.05815186E-02 -1.19796704E-03  1.10158503E-09  1.40760102E-03
  1.54656880E-03 -1.68839149E-09  8.67027647E-10 -5.45161530E-03 -1.11527832E-07
 -2.62998686E-08 -4.25908107E-08 -8.33425283E-10  1.94061890E-03  5.58535248E-03
 -4.41156844E-09  8.13304467E-03  2.34079557E-02  3.51155987E-10  3.19405308E-03
  1.13085870E-10 -3.35812654E-10  1.10976698E-03 -8.47778846E-10 -3.10882964E-09
  4.09010477E-08  4.36908230E-09  6.32661524E-08 -5.82855344E-09 -8.96157256E-04
 -2.57925662E-03 -5.58968398E-08  3.16385212E-01  9.10597609E-01  1.29440066E-09
  1.03132829E-03  2.96829637E-03 -3.06462646E-08  9.31536343E-03  2.68108221E-02
  6.31777900E-09 -5.24455095E-03 -1.78991538E-09 -1.52543378E-08 -1.82220813E-03
  9.27614384E-09 -1.05815187E-02 -1.46711353E-09 -1.96007626E-08 -3.67652627E-03
 -3.44790426E-03  1.61047650E-09 -4.89067995E-04  4.45122525E-03  1.40182753E-09
  6.78024933E-10  1.89415220E-03  2.84771180E-01  1.29957715E-01  1.72292647E+00
 -1.88606802E-02  1.72496881E-10  4.60334077E-10  1.67868201E-01  8.05923041E-10
  2.15068791E-09 -6.94316694E-03 -3.08167960E-10 -1.69342730E-13  1.20259179E-02
 -1.15476824E-10  1.47807636E-02  8.85359608E-02 -1.11893771E-01 -1.41067087E-02
 -1.22089936E+00  4.16413288E-02 -2.59401527E-09 -6.92242105E-09  5.32162922E-01
  1.80470497E-08  4.81610426E-08 -4.35719884E-02  2.80320851E-09  7.48066441E-09
  7.60092639E-01  1.55515371E-08  4.15011073E-08 -1.69679897E-02 -1.98326724E-09
 -7.07155697E-13  2.93894203E-02 -7.43178207E-10  3.96859553E-02  2.83711925E-09
 -1.47629247E-12 -6.87380909E-02  1.06313794E-09 -3.04457259E-10 -1.15786576E-02
 -4.65749431E-11  3.93052159E-10  3.89707069E-14  1.49479827E-02  1.80386421E-10
 -4.71587563E-01 -9.57572207E-01  1.04958287E+00 -2.34372578E-02 -6.78556411E-10
 -1.81080687E-09  4.88340957E-02  1.94945766E-09  5.20233956E-09  3.79185213E-04
  9.13556528E-10  3.50774624E-13 -6.56768053E-04  3.42332948E-10 -7.24041552E-03
 -4.62927559E-02 -2.05591167E-02  1.18966303E-03  1.19042402E-01  3.63054773E-02
  6.17574512E-09  1.64808141E-08 -2.46846235E-02  1.44294651E-08  3.85070869E-08
 -4.55435191E-02 -7.10802181E-09 -1.89687324E-08 -6.84744215E-01 -3.67013491E-08
 -9.79424321E-08  6.01533612E-02 -1.85912023E-09  5.53834185E-13 -1.04188678E-01
 -6.96659589E-10  8.44678812E-02 -4.53718955E-09  1.12355248E-12 -1.46302662E-01
 -1.70019104E-09 -1.21472291E-10  4.93848141E-03 -1.85869386E-11  1.56816574E-10
 -2.68081093E-13 -6.37555209E-03  7.19690954E-11 -1.78826964E-07  3.31853319E-07
  6.69143279E-07 -1.06713858E-08 -2.56352874E-03 -4.68821015E-03  2.73202762E-07
  2.39958867E-02  4.38839469E-02 -4.94052025E-09  1.49482871E-03 -3.61340519E-11
  8.49487700E-09  8.17377261E-04 -2.03414002E-08 -1.35987620E-07 -3.81648230E-07
  6.58142430E-08 -1.98471654E-07 -1.34899835E-07  1.95472807E-01  3.57482864E-01
 -8.59511596E-07  9.75662632E-01  1.78430278E+00  1.68627486E-07 -2.46667488E-01
 -4.51108271E-01  1.40613327E-06 -1.00250655E+00 -1.83339523E+00 -2.06890392E-09
 -1.04305513E-02 -2.10188213E-09 -4.36323705E-11 -5.70345976E-03  1.15155118E-07
  1.08072283E-02 -2.44510358E-10 -1.99876648E-07  5.90942801E-03  1.69371862E-04
 -1.48926988E-08  3.78091366E-05 -2.18658134E-04  9.76616550E-10  2.06024038E-08
 -1.46434156E-04  2.55395149E-08 -4.73941911E-08 -9.55648952E-08  1.52405450E-09
 -4.68821014E-03  2.56352874E-03 -3.90179590E-08  4.38839469E-02 -2.39958866E-02
  7.33022968E-10 -8.17377261E-04 -3.11735345E-11 -1.19737073E-09  1.49482871E-03
  2.90509826E-09  1.94213461E-08  5.45058311E-08 -9.39939163E-09  2.83450060E-08
  1.92659851E-08  3.57482864E-01 -1.95472807E-01  1.22752831E-07  1.78430278E+00
 -9.75662632E-01 -2.40828695E-08 -4.51108271E-01  2.46667488E-01 -2.00819528E-07
 -1.83339523E+00  1.00250655E+00  1.89138642E-09  5.70345976E-03 -1.81342610E-09
  9.27634499E-10 -1.04305512E-02 -1.62607398E-08 -5.90942802E-03 -2.10565784E-10
  2.86527566E-08  1.08072283E-02 -9.26130919E-05  1.44998532E-09  6.91457731E-05
  1.19562987E-04  8.42626875E-10 -3.46672556E-09 -2.67800427E-04  3.30181933E-01
 -4.54990694E-01 -1.12543821E+00  1.87661507E-02 -1.45974356E-09 -3.89551913E-09
 -4.59273593E-01  1.67522382E-08  4.47055542E-08  7.95608933E-03 -2.42525366E-10
 -2.10784004E-13 -1.37803510E-02 -9.08808452E-11  3.51539165E-02  2.35030088E-01
  6.36079337E-01 -1.09315859E-01  2.69254729E-01  2.18001488E-01  8.92116151E-08
  2.38073329E-07  1.42664398E+00  4.52079361E-07  1.20643524E-06 -2.75926423E-01
 -1.13498200E-07 -3.02885368E-07 -2.21482282E+00 -4.54799297E-07 -1.21369384E-06
 -3.55004063E-03 -1.26947950E-08 -1.69351222E-12  6.14885074E-03 -4.75704262E-09
 -1.92645097E-01 -1.33880270E-08 -9.35405483E-12  3.33671095E-01 -5.01682740E-09
 -8.40790826E-10  2.57614225E-02 -1.28623391E-10  1.08545866E-09  2.79372292E-13
 -3.32578534E-02  4.98161628E-10  5.46527600E-09 -5.53676552E-08 -6.30471980E-08
 -3.50546178E-10  4.44149715E-03  3.45142665E-02 -3.60437214E-08 -6.11626454E-02
 -4.75286546E-01  6.83194938E-10  3.42699380E-03 -2.46815057E-10 -2.11661855E-09
  4.41005554E-04 -6.64825328E-10 -5.28261133E-09 -9.18612532E-09 -4.91639384E-09
  9.51906631E-08  3.61802692E-10  3.20652988E-03  2.49175048E-02  4.65251456E-08
  2.07212277E-02  1.61021824E-01 -8.63837237E-10 -3.81866478E-03 -2.96743212E-02
 -1.01057645E-07  9.41002994E-03  7.31240552E-02  3.21738933E-09  1.52539840E-01
  8.57721191E-10 -2.32933431E-09  1.96297165E-02 -9.37644221E-10  6.03802853E-01
  5.56314678E-09  2.26602053E-08  7.77008734E-02 -3.25323787E-03  7.87954161E-10
 -1.70911361E-04  4.19991203E-03 -1.02520198E-09 -4.18248560E-09  6.61936857E-04
 -1.28281339E-09  1.29959118E-08  1.47984538E-08  8.22806561E-11 -3.45142665E-02
  4.44149716E-03  8.46019595E-09  4.75286546E-01 -6.11626454E-02 -4.68965806E-10
  4.41005554E-04  4.66646518E-10  3.18640789E-10 -3.42699380E-03  1.56049526E-10
  1.23994655E-09  2.15619933E-09  1.15397497E-09 -2.23432102E-08 -8.49174954E-11
 -2.49175047E-02  3.20652985E-03 -1.09203770E-08 -1.61021824E-01  2.07212276E-02
  2.02752312E-10  2.96743212E-02 -3.81866474E-03  2.37202697E-08 -7.31240554E-02
  9.41003008E-03  3.17280254E-10  1.96297165E-02 -1.62168235E-09  1.16593087E-09
 -1.52539840E-01  7.17601705E-09  7.77008734E-02 -1.05181066E-08 -1.30279532E-09
 -6.03802853E-01 -4.18645627E-04 -1.35511604E-09  1.32812880E-03  5.40469181E-04
  1.93830331E-09  7.53077727E-11 -5.14382072E-03  2.26515006E-12  3.24221103E-12
  8.62580609E-12 -7.03642096E-14 -2.50060922E-10  4.30845274E-10  4.96558436E-12
  1.65186569E-09 -2.84615309E-09 -7.26058389E-03 -8.40529370E-11  1.41627135E-03
 -4.19190006E-03  4.87817155E-11 -2.97906746E-13 -1.91357334E-12 -5.71354684E-12
  1.30043888E-12 -5.25247145E-12 -2.51297847E-12  3.57295566E-10 -6.15943379E-10
 -2.09325465E-11  3.51573964E-09 -6.05955404E-09  3.46003005E-12 -3.85956182E-10
  6.65444379E-10  2.28575860E-11 -2.35916722E-09  4.06624386E-09 -1.39360199E-01
  2.65601721E-09  2.71840199E-02 -8.04596486E-02 -1.54154007E-09 -7.62342564E-01
  8.40054828E-09  1.48704835E-01 -4.40138685E-01 -4.87566835E-09  3.17116892E-09
  6.08922737E-03  6.98821227E-10  2.22593866E-09 -1.30115111E-03  4.71669524E-03
  2.89636860E-10  1.73218890E-12  5.72869945E-12  1.14773076E-11 -7.67424677E-14
  4.30844709E-10  2.50059532E-10  6.65118595E-12 -2.84612516E-09 -1.65190588E-09
 -1.22652697E-03 -4.87857469E-11 -8.38380013E-03 -7.08135674E-04 -8.40513556E-11
 -3.05728817E-13 -1.93283187E-12 -5.89388449E-12  1.57786946E-12 -8.75856968E-12
 -2.73712286E-12 -6.15841815E-10 -3.57617485E-10 -2.43415591E-11 -6.05891738E-09
 -3.51774028E-09  3.82195363E-12  6.65306328E-10  3.86389659E-10  2.79513156E-11
  4.06579137E-09  2.36060900E-09 -2.35420518E-02  1.54153435E-09 -1.60919297E-01
 -1.35920100E-02  2.65601546E-09 -1.28782165E-01  4.87558916E-09 -8.80277369E-01
 -7.43524176E-02  8.40056665E-09 -5.27416941E-10  1.02865027E-03  3.79278423E-09
 -5.42284989E-10  7.70233107E-03  7.96789072E-04  7.91141229E-10  4.73166389E-01
 -1.35352623E+00 -2.10651640E+00 -1.61116945E-03 -1.35751328E-10 -3.62272130E-10
 -1.19658744E+00  4.23123683E-09  1.12915875E-08  5.43787823E-02 -9.13912757E-11
 -5.18992165E-14 -9.41868138E-02 -3.42458958E-11 -1.45043965E-01 -1.00624656E+00
 -2.65076873E+00  8.68426637E-02  5.14914296E+00 -4.38939932E-01 -1.06471563E-09
 -2.84131214E-09 -1.27421546E+00  1.26416250E-10  3.37383521E-10  5.70474471E-01
  1.62919997E-09  4.34769580E-09 -9.07510758E-01  4.76679337E-10  1.27206488E-09
  2.53035001E-02 -6.55820589E-09 -3.86108527E-13 -4.38269478E-02 -2.45752223E-09
 -2.40913108E-01 -3.12409667E-09 -2.85769289E-13  4.17273743E-01 -1.17068678E-09
  1.96636412E-11  8.88118377E-02  3.00675199E-12 -2.53852889E-11 -1.29750929E-13
 -1.14655589E-01 -1.16502128E-11 -2.11076988E-01  2.06769252E+00  1.63394859E-01
  5.55462357E-02 -1.10356457E-10 -2.94497863E-10 -2.54723968E-02  2.07824258E-09
  5.54601575E-09 -3.06668684E-02 -1.10948100E-09  4.75465136E-14  5.31165742E-02
 -4.15747766E-10  7.50500304E-02  5.20986777E-01  1.25634551E+00 -2.79483690E-02
 -2.33162692E+00  1.06351929E-01 -1.60421868E-09 -4.28106231E-09  3.89197664E-01
 -1.03694853E-08 -2.76722777E-08 -1.46991682E-01  2.54194020E-09  6.78349625E-09
  9.56870034E-01  4.65865208E-09  1.24321952E-08  8.43857616E-02  1.37321887E-09
 -1.04596538E-13 -1.46160427E-01  5.14577579E-10  6.00844674E-01  3.94997344E-09
  1.67158924E-12 -1.04069350E+00  1.48016167E-09 -5.66356445E-10 -3.53654766E-02
 -8.66396041E-11  7.31165754E-10 -3.82418697E-13  4.56566340E-02  3.35562962E-10
 -2.71446424E-10 -9.24190551E-11  6.37112104E-11  1.23125019E-11  9.31866197E-02
 -3.67081511E-02 -7.74464212E-11 -1.22144711E+00  4.81153467E-01  9.50868889E-10
  7.63853091E-03 -1.20308084E-09  5.22811988E-10 -1.93910304E-02  2.32313639E-12
  1.35060064E-11  1.17115196E-10 -2.29859090E-11  1.52253447E-10  1.59018169E-11
  4.72146744E-02 -1.85988440E-02 -2.60087615E-11  2.43254843E-01 -9.58231511E-02
 -5.47154401E-11 -5.69322420E-02  2.24267964E-02 -1.09883315E-10  2.87584566E-01
 -1.13285553E-01  1.07914742E-10  4.21519874E-02 -1.47336248E-10  7.88030755E-11
 -1.07006240E-01  1.27109791E-09  3.30397638E-01 -1.73018031E-09  9.18781180E-10
 -8.38741209E-01 -2.49765079E-04 -2.23107712E-10  2.58849386E-04  3.22445331E-04
  2.94648108E-10 -1.45855531E-10 -1.00251936E-03 -1.62274285E-08 -5.52383944E-09
  3.80846040E-09  7.36116645E-10 -3.67081511E-02 -9.31866197E-02 -4.62853349E-09
  4.81153467E-01  1.22144711E+00  1.71937823E-09  1.93910304E-02  1.08488632E-09
 -5.71881784E-10  7.63853091E-03  1.38787679E-10  8.06759142E-10  6.99973817E-09
 -1.37396988E-09  9.10266995E-09  9.51283929E-10 -1.85988440E-02 -4.72146744E-02
 -1.55278703E-09 -9.58231511E-02 -2.43254843E-01 -3.27184744E-09  2.24267964E-02
  5.69322420E-02 -6.56943313E-09 -1.13285553E-01 -2.87584566E-01 -2.99625076E-10
  1.07006240E-01  1.32865505E-10  8.13651034E-10  4.21519874E-02 -3.28819716E-09
  8.38741209E-01  1.56017001E-09  9.15562147E-09  3.30397638E-01 -6.34048916E-04
 -1.01337794E-09 -1.01966166E-04  8.18553632E-04 -2.65695564E-10  8.27117065E-10
  3.94913265E-04  6.42110303E-01  3.58984757E+00  1.11724899E+00 -1.08170221E-01
  3.92557772E-10  1.04758446E-09  3.28062279E+00  1.67715381E-09  4.47572320E-09
 -7.77273035E-02  7.82660335E-10 -4.48606489E-13  1.34627639E-01  2.93279750E-10
 -5.18645321E-02 -3.56369273E-01 -9.76660806E-01  2.83387596E-01 -3.34187433E+00
  1.26461453E+00  1.99077084E-10  5.31261829E-10  4.91277107E+00  3.27962516E-09
  8.75209239E-09 -1.40953691E+00 -3.99398006E-10 -1.06584327E-09 -2.77513547E-01
 -2.10387564E-09 -5.61446918E-09  1.47841127E-03 -2.06274248E-09 -4.15921436E-13
 -2.56068344E-03 -7.72963152E-10  1.01647257E+00  5.16544272E-09  8.26238069E-13
 -1.76058213E+00  1.93561136E-09 -7.20167900E-10 -7.20025714E-02 -1.10166767E-10
  9.29738507E-10  1.39043328E-13  9.29549200E-02  4.26696625E-10 -2.42918646E+00
  2.76528596E+00  9.97508469E-01 -1.92890205E-01  2.97671926E-09  7.94374964E-09
  9.64039917E-01  1.40872618E-09  3.75933776E-09  1.06039131E-02  1.16689205E-08
 -3.26622453E-13 -1.83665163E-02  4.37263581E-09 -1.25002237E-02 -1.02783808E-01
 -3.05081614E-01  3.21452946E-03 -7.10838242E-01  9.97246047E-02  1.80531399E-10
  4.81749890E-10  6.91453656E-01 -1.31446823E-09 -3.50786216E-09  7.92426133E-02
 -5.15821430E-10 -1.37649430E-09  1.86014593E-01 -3.61113317E-10 -9.63649509E-10
  4.19898155E-01 -7.61718662E-08  9.78863953E-12 -7.27284939E-01 -2.85435131E-08
 -1.27707483E-01  6.12397489E-08 -7.00770605E-12  2.21195849E-01  2.29480764E-08
 -1.56251060E-08 -3.16343447E-01 -2.39035260E-09  2.01719239E-08 -1.42373534E-12
  4.08397634E-01  9.25774818E-09  1.54751821E-08 -1.88309292E-08 -6.35481680E-09
  1.15922988E-09  1.07595989E-01 -3.14147877E-02 -6.54265589E-09  9.07182412E-02
 -2.64869937E-02  1.55695170E-09 -4.43378122E-02 -2.52695869E-09  1.08661774E-09
  1.51857488E-01  1.92724614E-10  1.34459670E-09  3.11404703E-09 -5.79957170E-10
  4.30475796E-09 -9.98563072E-10 -2.88965307E-02  8.43691650E-03 -6.06159948E-09
 -1.25508489E-01  3.66446979E-02 -4.62127753E-11  3.96811492E-02 -1.15857002E-02
 -9.71578792E-10  3.02378930E-02 -8.82855388E-03  6.72542714E-08  3.06161575E-01
 -1.06948120E-07  4.36342052E-08 -1.04860672E+00 -4.87030442E-08 -2.51376814E-01
  7.52009532E-08 -2.82342173E-08  8.60968321E-01  5.77103374E-02 -1.01381046E-08
 -8.06937580E-02 -7.45037252E-02  2.04701218E-08 -1.19354918E-08  3.12525581E-01
 -2.07459195E-07  2.52446201E-07  8.51922733E-08 -1.55405238E-08 -3.14147877E-02
 -1.07595989E-01  8.77102850E-08 -2.64869937E-02 -9.07182412E-02  3.27806655E-09
 -1.51857488E-01  1.89167530E-09 -6.23849486E-10 -4.43378122E-02 -2.58365989E-09
 -1.80256022E-08 -4.17467187E-08  7.77493555E-09 -5.77093398E-08  1.33863490E-08