HCl_example
Freq      RHF                                                         CC-PVTZ
Number of atoms                            I                2
Charge                                     I                0
Multiplicity                               I                1
Number of electrons                        I               18
Number of alpha electrons                  I                9
Number of beta electrons                   I                9
Number of basis functions                  I               48
Number of independent functions            I               48
Atomic numbers                             I   N=           2
           1          17
Nuclear charges                            R   N=           2
  1.00000000E+00  1.70000000E+01
Current cartesian coordinates              R   N=           6
  0.00000000E+00  0.00000000E+00  0.00000000E+00  2.39995219E+00  0.00000000E+00
  0.00000000E+00
Real atomic weights                        R   N=           2
  1.00794000E+00  3.54530000E+01
MicOpt                                     I   N=           2
          -1          -1
Number of contracted shells                I               18
Number of primitive shells                 I              136
Pure/Cartesian d shells                    I                3
Pure/Cartesian f shells                    I                1
Highest angular momentum                   I                3
Largest degree of contraction              I               15
Shell types                                I   N=          18
           0           0           0           1           1          -2
           0           0           0           0           0           1
           1           1           1          -2          -2          -3
Number of primitives per shell             I   N=          18
           5           5           5           2           2           1
          15          15          15          15          15           9
           9           9           9           2           2           1
Shell to atom map                          I   N=          18
           1           1           1           1           1           1
           2           2           2           2           2           2
           2           2           2           2           2           2
Primitive exponents                        R   N=         136
  3.38700000E+01  5.09500000E+00  1.15900000E+00  3.25800000E-01  1.02700000E-01
  3.38700000E+01  5.09500000E+00  1.15900000E+00  3.25800000E-01  1.02700000E-01
  3.38700000E+01  5.09500000E+00  1.15900000E+00  3.25800000E-01  1.02700000E-01
  1.40700000E+00  3.88000000E-01  1.40700000E+00  3.88000000E-01  1.05700000E+00
  4.56100000E+05  6.83300000E+04  1.55500000E+04  4.40500000E+03  1.43900000E+03
  5.20400000E+02  2.03100000E+02  8.39600000E+01  3.62000000E+01  1.58300000E+01
  6.33400000E+00  2.69400000E+00  9.76800000E-01  4.31300000E-01  1.62500000E-01
  4.56100000E+05  6.83300000E+04  1.55500000E+04  4.40500000E+03  1.43900000E+03
  5.20400000E+02  2.03100000E+02  8.39600000E+01  3.62000000E+01  1.58300000E+01
  6.33400000E+00  2.69400000E+00  9.76800000E-01  4.31300000E-01  1.62500000E-01
  4.56100000E+05  6.83300000E+04  1.55500000E+04  4.40500000E+03  1.43900000E+03
  5.20400000E+02  2.03100000E+02  8.39600000E+01  3.62000000E+01  1.58300000E+01
  6.33400000E+00  2.69400000E+00  9.76800000E-01  4.31300000E-01  1.62500000E-01
  4.56100000E+05  6.83300000E+04  1.55500000E+04  4.40500000E+03  1.43900000E+03
  5.20400000E+02  2.03100000E+02  8.39600000E+01  3.62000000E+01  1.58300000E+01
  6.33400000E+00  2.69400000E+00  9.76800000E-01  4.31300000E-01  1.62500000E-01
  4.56100000E+05  6.83300000E+04  1.55500000E+04  4.40500000E+03  1.43900000E+03
  5.20400000E+02  2.03100000E+02  8.39600000E+01  3.62000000E+01  1.58300000E+01
  6.33400000E+00  2.69400000E+00  9.76800000E-01  4.31300000E-01  1.62500000E-01
  6.63300000E+02  1.56800000E+02  4.99800000E+01  1.84200000E+01  7.24000000E+00
  2.92200000E+00  1.02200000E+00  3.81800000E-01  1.30100000E-01  6.63300000E+02
  1.56800000E+02  4.99800000E+01  1.84200000E+01  7.24000000E+00  2.92200000E+00
  1.02200000E+00  3.81800000E-01  1.30100000E-01  6.63300000E+02  1.56800000E+02
  4.99800000E+01  1.84200000E+01  7.24000000E+00  2.92200000E+00  1.02200000E+00
  3.81800000E-01  1.30100000E-01  6.63300000E+02  1.56800000E+02  4.99800000E+01
  1.84200000E+01  7.24000000E+00  2.92200000E+00  1.02200000E+00  3.81800000E-01
  1.30100000E-01  1.04600000E+00  3.44000000E-01  1.04600000E+00  3.44000000E-01
  7.06000000E-01
Contraction coefficients                   R   N=         136
  6.06799922E-03  4.53079942E-02  2.02821974E-01  5.03902935E-01  3.83420951E-01
  0.00000000E+00  0.00000000E+00  0.00000000E+00  1.00000000E+00  0.00000000E+00
  0.00000000E+00  0.00000000E+00  0.00000000E+00  0.00000000E+00  1.00000000E+00
  1.00000000E+00  0.00000000E+00  0.00000000E+00  1.00000000E+00  1.00000000E+00
  4.92970068E-05  3.83029053E-04  2.00854028E-03  8.38558115E-03  2.94703041E-02
  8.78325121E-02  2.11473029E-01  3.65364050E-01  3.40884047E-01  1.02133014E-01
  3.11675043E-03  1.05751015E-03 -3.78000052E-04  1.56136022E-04 -5.14126071E-05
 -1.38304094E-05 -1.07279073E-04 -5.65083383E-04 -2.36135160E-03 -8.45886573E-03
 -2.59638176E-02 -6.86362465E-02 -1.41874096E-01 -1.99319135E-01 -1.95662133E-02
  4.99741339E-01  5.63736382E-01  7.90325535E-02 -8.35091566E-03  2.32456157E-03
  4.18546193E-06  3.24395149E-05  1.71105079E-04  7.14176328E-04  2.56705118E-03
  7.88552363E-03  2.10867097E-02  4.42264203E-02  6.51670300E-02  6.03012277E-03
 -2.06495095E-01 -4.05871187E-01  7.59558349E-02  7.25661334E-01  3.94423181E-01
  0.00000000E+00  0.00000000E+00  0.00000000E+00  0.00000000E+00  0.00000000E+00
  0.00000000E+00  0.00000000E+00  0.00000000E+00  0.00000000E+00  0.00000000E+00
  0.00000000E+00  0.00000000E+00  1.00000000E+00  0.00000000E+00  0.00000000E+00
  0.00000000E+00  0.00000000E+00  0.00000000E+00  0.00000000E+00  0.00000000E+00
  0.00000000E+00  0.00000000E+00  0.00000000E+00  0.00000000E+00  0.00000000E+00
  0.00000000E+00  0.00000000E+00  0.00000000E+00  0.00000000E+00  1.00000000E+00
  2.40448030E-03  1.92148024E-02  8.85097110E-02  2.56020032E-01  4.36927055E-01
  3.50334044E-01  5.85495073E-02 -4.58423057E-03  2.26970028E-03 -6.52144751E-04
 -5.19444802E-03 -2.46937906E-02 -7.28166722E-02 -1.34029949E-01 -9.47741638E-02
  2.62288900E-01  5.64666784E-01  3.41249870E-01  0.00000000E+00  0.00000000E+00
  0.00000000E+00  0.00000000E+00  0.00000000E+00  0.00000000E+00  1.00000000E+00
  0.00000000E+00  0.00000000E+00  0.00000000E+00  0.00000000E+00  0.00000000E+00
  0.00000000E+00  0.00000000E+00  0.00000000E+00  0.00000000E+00  0.00000000E+00
  1.00000000E+00  1.00000000E+00  0.00000000E+00  0.00000000E+00  1.00000000E+00
  1.00000000E+00
P(S=P) Contraction coefficients            R   N=         136
  0.00000000E+00  0.00000000E+00  0.00000000E+00  0.00000000E+00  0.00000000E+00
  0.00000000E+00  0.00000000E+00  0.00000000E+00  0.00000000E+00  0.00000000E+00
  0.00000000E+00  0.00000000E+00  0.00000000E+00  0.00000000E+00  0.00000000E+00
  0.00000000E+00  0.00000000E+00  0.00000000E+00  0.00000000E+00  0.00000000E+00
  0.00000000E+00  0.00000000E+00  0.00000000E+00  0.00000000E+00  0.00000000E+00
  0.00000000E+00  0.00000000E+00  0.00000000E+00  0.00000000E+00  0.00000000E+00
  0.00000000E+00  0.00000000E+00  0.00000000E+00  0.00000000E+00  0.00000000E+00
  0.00000000E+00  0.00000000E+00  0.00000000E+00  0.00000000E+00  0.00000000E+00
  0.00000000E+00  0.00000000E+00  0.00000000E+00  0.00000000E+00  0.00000000E+00
  0.00000000E+00  0.00000000E+00  0.00000000E+00  0.00000000E+00  0.00000000E+00
  0.00000000E+00  0.00000000E+00  0.00000000E+00  0.00000000E+00  0.00000000E+00
  0.00000000E+00  0.00000000E+00  0.00000000E+00  0.00000000E+00  0.00000000E+00
  0.00000000E+00  0.00000000E+00  0.00000000E+00  0.00000000E+00  0.00000000E+00
  0.00000000E+00  0.00000000E+00  0.00000000E+00  0.00000000E+00  0.00000000E+00
  0.00000000E+00  0.00000000E+00  0.00000000E+00  0.00000000E+00  0.00000000E+00
  0.00000000E+00  0.00000000E+00  0.00000000E+00  0.00000000E+00  0.00000000E+00
  0.00000000E+00  0.00000000E+00  0.00000000E+00  0.00000000E+00  0.00000000E+00
  0.00000000E+00  0.00000000E+00  0.00000000E+00  0.00000000E+00  0.00000000E+00
  0.00000000E+00  0.00000000E+00  0.00000000E+00  0.00000000E+00  0.00000000E+00
  0.00000000E+00  0.00000000E+00  0.00000000E+00  0.00000000E+00  0.00000000E+00
  0.00000000E+00  0.00000000E+00  0.00000000E+00  0.00000000E+00  0.00000000E+00
  0.00000000E+00  0.00000000E+00  0.00000000E+00  0.00000000E+00  0.00000000E+00
  0.00000000E+00  0.00000000E+00  0.00000000E+00  0.00000000E+00  0.00000000E+00
  0.00000000E+00  0.00000000E+00  0.00000000E+00  0.00000000E+00  0.00000000E+00
  0.00000000E+00  0.00000000E+00  0.00000000E+00  0.00000000E+00  0.00000000E+00
  0.00000000E+00  0.00000000E+00  0.00000000E+00  0.00000000E+00  0.00000000E+00
  0.00000000E+00  0.00000000E+00  0.00000000E+00  0.00000000E+00  0.00000000E+00
  0.00000000E+00
Coordinates of each shell                  R   N=          54
  0.00000000E+00  0.00000000E+00  0.00000000E+00  0.00000000E+00  0.00000000E+00
  0.00000000E+00  0.00000000E+00  0.00000000E+00  0.00000000E+00  0.00000000E+00
  0.00000000E+00  0.00000000E+00  0.00000000E+00  0.00000000E+00  0.00000000E+00
  0.00000000E+00  0.00000000E+00  0.00000000E+00  2.39995219E+00  0.00000000E+00
  0.00000000E+00  2.39995219E+00  0.00000000E+00  0.00000000E+00  2.39995219E+00
  0.00000000E+00  0.00000000E+00  2.39995219E+00  0.00000000E+00  0.00000000E+00
  2.39995219E+00  0.00000000E+00  0.00000000E+00  2.39995219E+00  0.00000000E+00
  0.00000000E+00  2.39995219E+00  0.00000000E+00  0.00000000E+00  2.39995219E+00
  0.00000000E+00  0.00000000E+00  2.39995219E+00  0.00000000E+00  0.00000000E+00
  2.39995219E+00  0.00000000E+00  0.00000000E+00  2.39995219E+00  0.00000000E+00
  0.00000000E+00  2.39995219E+00  0.00000000E+00  0.00000000E+00
SCF Energy                                 R      -4.601039658342318E+02
Total Energy                               R      -4.601039658342318E+02
Alpha Orbital Energies                     R   N=          48
 -1.04848674E+02 -1.05726990E+01 -8.03763456E+00 -8.03542556E+00 -8.03542556E+00
 -1.11663522E+00 -6.24726706E-01 -4.75485942E-01 -4.75485942E-01  1.25582499E-01
  3.28841821E-01  4.90526858E-01  4.90526858E-01  4.97310613E-01  5.66022031E-01
  5.66022031E-01  6.58189447E-01  6.58189447E-01  7.24750972E-01  9.50238753E-01
  1.07875397E+00  1.07875397E+00  1.50113621E+00  2.15267476E+00  2.19424598E+00
  2.19424598E+00  2.23658734E+00  2.23658734E+00  2.33832810E+00  2.33832810E+00
  2.40791967E+00  2.40791967E+00  2.43101011E+00  2.54451473E+00  2.54451473E+00
  2.60742245E+00  2.60742245E+00  2.73878495E+00  3.22038149E+00  3.58384721E+00
  3.58384721E+00  3.95465732E+00  3.95465732E+00  4.32561931E+00  4.41622716E+00
  4.41622716E+00  4.75905230E+00  6.28867057E+00
Alpha MO coefficients                      R   N=        2304
 -3.98374177E-07 -1.25317621E-04  1.06951972E-05 -9.80555172E-06  1.16699370E-13
  3.11424908E-13 -7.37295650E-05  2.37691542E-13  6.34260850E-13  5.93794193E-06
  6.21244589E-13  3.67070123E-17 -1.02848171E-05  2.32810711E-13  1.00001390E+00
  7.56699902E-05  1.30131959E-04 -7.04759110E-05 -1.50940825E-05 -1.28148258E-04
 -1.78025502E-11 -4.75084321E-11 -2.25509769E-04 -1.07624433E-11 -2.87209526E-11
  1.28462941E-04  1.21397675E-11  3.23965494E-11  7.60919818E-05  5.78023490E-12
  1.54253093E-11 -4.09566462E-06  5.57554397E-12  4.37816380E-16  7.09389921E-06
  2.08929017E-12 -2.57131541E-05  1.33054852E-13 -7.18724051E-17  4.45364893E-05
  4.98743031E-14 -7.27130445E-13  1.02124356E-05 -1.11205219E-13  9.38591914E-13
  1.05913481E-15 -1.31841977E-05  4.30757483E-13  1.17141616E-03  2.38095367E-04
 -8.86661183E-04  1.90340481E-05 -1.07134492E-12 -2.85903644E-12  3.32120334E-04
 -4.67663223E-11 -1.24802057E-10  9.09089916E-05 -5.85367502E-12  6.39814355E-15
 -1.57458992E-04 -2.19345133E-12 -1.09770244E-04  9.99340541E-01 -4.76534637E-04
  6.80337294E-04  2.21778199E-04 -3.27760343E-03 -1.12024012E-09 -2.98949977E-09
  1.54029605E-03  2.57750696E-10  6.87840526E-10 -1.50818564E-03 -3.02834997E-10
 -8.08153784E-10 -7.05721608E-04 -1.21708979E-10 -3.24795808E-10 -3.18898632E-04
  4.00177663E-10  4.16942966E-14  5.52348633E-04  1.49956435E-10  3.08723607E-04
 -3.09061715E-10 -2.19039152E-14 -5.34724972E-04 -1.15812975E-10  8.33019829E-12
  2.21300665E-05  1.27387811E-12 -1.07546610E-11 -2.99066290E-14 -2.85697930E-05
 -4.93595108E-12  1.67234116E-03  1.79448537E-03 -8.39295689E-04 -2.50510169E-04
 -5.25635687E-12 -1.40273698E-11  1.51908839E-03 -1.33344209E-11 -3.55849940E-11
  2.01360134E-04  4.81430774E-11  3.12685222E-15 -3.48765983E-04  1.80403099E-11
 -3.27086000E-04 -5.64993870E-03 -6.88852915E-04  1.84403855E-03 -1.16201786E-03
 -9.97837791E-01 -7.02616373E-08 -1.87505407E-07  5.67047326E-03  4.48993066E-10
  1.19819749E-09 -3.69027025E-03 -5.08180355E-10 -1.35613987E-09 -1.05645343E-03
 -1.70679724E-10 -4.55478911E-10 -4.59497329E-04  4.79212931E-10 -2.38563244E-14
  7.95872720E-04  1.79572146E-10  6.68220935E-04 -1.19101129E-10  6.64432241E-14
 -1.15739261E-03 -4.46297366E-11  8.04968199E-11  6.77634673E-05  1.23143827E-11
 -1.03920872E-10 -1.06222691E-14 -8.74822601E-05 -4.76935249E-11 -1.60643106E-10
  4.83337800E-10  9.38515090E-11  8.35441163E-11 -3.65393727E-05 -3.03442936E-06
  2.53433013E-10 -1.19152557E-04 -9.89508003E-06 -5.41156151E-11  5.10463452E-06
 -1.66096157E-12  9.46706361E-11  6.14679471E-05 -1.17177145E-10 -1.80870436E-09
 -7.09881064E-10  6.20069392E-10  1.28792175E-10  8.63306373E-08 -9.96913532E-01
 -8.27891522E-02  8.94426778E-10  1.20610738E-03  1.00161753E-04 -7.62108570E-10
  6.63393946E-04  5.50918615E-05 -3.75683442E-10  2.36851496E-04  1.96694436E-05
  4.73304876E-11  4.36785690E-05  4.52422756E-10 -3.37940637E-10  5.25959687E-04
  9.00747405E-11 -2.51134784E-05 -2.33360157E-10 -2.39875412E-11 -3.02406364E-04
  6.78668932E-06 -6.56032185E-11  3.33631001E-05 -8.76157823E-06 -5.63517747E-11
  1.10724167E-10 -1.29214731E-04  3.40009904E-10 -1.02299042E-09 -1.98641270E-10
 -1.76823686E-10 -3.03442936E-06  3.65393727E-05 -5.36392215E-10 -9.89508005E-06
  1.19152557E-04  1.16837068E-10 -6.14679471E-05  4.69871926E-13 -1.99045769E-10
  5.10463453E-06  2.48007304E-10  3.82814678E-09  1.50247740E-09 -1.31238638E-09
 -2.72594988E-10 -1.82723503E-07 -8.27891522E-02  9.96913532E-01 -1.89305750E-09
  1.00161753E-04 -1.20610738E-03  1.61300878E-09  5.50918618E-05 -6.63393946E-04
  7.95139034E-10  1.96694437E-05 -2.36851496E-04 -7.26570028E-10 -5.25959687E-04
 -1.27978112E-10  3.53613093E-10  4.36785692E-05  1.32451317E-10  3.02406364E-04
  6.60105305E-11  2.37305534E-10 -2.51134786E-05 -8.17225716E-05  2.10073492E-10
  2.77065432E-06  1.05503386E-04  1.59406012E-11 -1.79181606E-10 -1.07306980E-05
  3.64871362E-01 -7.97291076E-02 -1.28284637E-01  1.14405870E-02  2.90855796E-11
  7.76182658E-11  1.63801162E-02 -1.73310932E-09 -4.62502362E-09 -1.58306596E-03
 -3.98327330E-10  1.51263590E-13  2.74195067E-03 -1.49263074E-10 -2.08054974E-04
 -5.39038663E-03  9.21683944E-01 -4.86904802E-03 -1.96280185E-02  9.04128187E-03
  2.37061226E-10  6.32631101E-10 -8.63284487E-02  2.85172506E-09  7.61021052E-09
 -2.89711733E-03 -2.15049139E-11 -5.73936844E-11  2.33956307E-02 -8.71315024E-10
 -2.32521986E-09 -7.82216251E-03 -6.65169404E-11  8.79428245E-14  1.35483829E-02
 -2.49265100E-11 -4.82709689E-03 -1.70392815E-09  3.86743278E-13  8.36077707E-03
 -6.38503379E-10  9.02932037E-10  4.00225672E-03  1.38114433E-10 -1.16569438E-09
 -1.13004727E-12 -5.16689121E-03 -5.34987109E-10 -6.43660745E-01  4.93327261E-02
  1.76001523E-01 -1.33612985E-02 -2.88283892E-10 -7.69321509E-10 -2.51331935E-02
  2.15431538E-09  5.74906893E-09  2.32702618E-03  2.94622821E-11  1.63236709E-13
 -4.03052757E-03  1.10399679E-11 -1.27929421E-03 -2.26414945E-03  2.84994433E-01
  7.18826587E-03  1.22390381E-01 -2.13093544E-02  1.22262491E-10  3.26271840E-10
  7.29597905E-01 -1.96094710E-08 -5.23303370E-08  1.37439546E-02 -1.01911487E-09
 -2.71963520E-09 -7.17190462E-02  2.50944140E-09  6.69676533E-09  2.06462706E-02
 -8.13307871E-09 -2.26444577E-12 -3.57603897E-02 -3.04766257E-09  1.84497625E-02
 -1.62397018E-08 -5.21826408E-12 -3.19559261E-02 -6.08541514E-09 -1.84274521E-09
 -7.00460817E-03 -2.81908833E-10  2.37896915E-09  1.58501133E-13  9.04291026E-03
  1.09180812E-09  3.05497014E-09  7.20408530E-10  1.16662664E-09  2.28299617E-11
 -5.59164485E-03  1.92241304E-03  1.20840470E-10 -2.34343267E-02  8.05674473E-03
  9.11657020E-11  1.09935574E-03 -1.36575424E-10  6.73867338E-11 -3.19765145E-03
  2.32215584E-11  8.51518701E-11 -1.12037741E-09 -1.19676195E-10 -1.73296428E-09
  1.59656566E-10  2.58216237E-03 -8.87749982E-04  1.53111482E-09 -9.11623474E-01
  3.13417054E-01 -3.54570651E-11 -2.97164040E-03  1.02165292E-03  8.39451699E-10
 -2.68410268E-02  9.22797161E-03 -1.76810560E-09 -1.80511313E-03  2.16149048E-09
 -5.03056312E-10  5.25045936E-03 -1.56131172E-09 -3.64203503E-03  1.77144595E-09
 -2.17824916E-10  1.05934396E-02 -1.18672834E-03  1.09633271E-09  1.40918680E-03
  1.53205971E-03 -1.69294931E-09  8.64814238E-10 -5.45775701E-03 -1.11518473E-07
 -2.62976617E-08 -4.25872369E-08 -8.33355344E-10  1.92241304E-03  5.59164485E-03
 -4.41119834E-09  8.05674474E-03  2.34343267E-02  3.51454854E-10  3.19765145E-03
  1.12641549E-10 -3.35594915E-10  1.09935574E-03 -8.47707711E-10 -3.10856879E-09
  4.08976157E-08  4.36871570E-09  6.32608437E-08 -5.82806441E-09 -8.87749982E-04
 -2.58216237E-03 -5.58921494E-08  3.13417054E-01  9.11623474E-01  1.29429211E-09
  1.02165292E-03  2.97164040E-03 -3.06436929E-08  9.22797161E-03  2.68410268E-02
  6.31205251E-09 -5.25045938E-03 -1.78288311E-09 -1.52560579E-08 -1.80511314E-03
  9.27110681E-09 -1.05934396E-02 -1.46135075E-09 -1.96015766E-08 -3.64203504E-03
 -3.45178861E-03  1.61405665E-09 -4.84479818E-04  4.45623994E-03  1.39631971E-09
  6.80845891E-10  1.87638227E-03  2.84771180E-01  1.29957715E-01  1.72292647E+00
 -1.88606802E-02  1.72496916E-10  4.60334096E-10  1.67868201E-01  8.05922880E-10
  2.15068781E-09 -6.94316694E-03 -3.08167999E-10 -1.69314317E-13  1.20259179E-02
 -1.15476863E-10  1.47807636E-02  8.85359608E-02 -1.11893771E-01 -1.41067087E-02
 -1.22089936E+00  4.16413288E-02 -2.59401538E-09 -6.92242133E-09  5.32162922E-01
  1.80470498E-08  4.81610428E-08 -4.35719884E-02  2.80320865E-09  7.48066480E-09
  7.60092639E-01  1.55515377E-08  4.15011085E-08 -1.69679897E-02 -1.98326696E-09
 -7.07127777E-13  2.93894203E-02 -7.43178018E-10  3.96859553E-02  2.83711944E-09
 -1.47597533E-12 -6.87380909E-02  1.06313743E-09 -3.04457413E-10 -1.15786576E-02
 -4.65747159E-11  3.93052318E-10  3.91450062E-14  1.49479827E-02  1.80386469E-10
 -4.71587563E-01 -9.57572207E-01  1.04958287E+00 -2.34372578E-02 -6.78556405E-10
 -1.81080688E-09  4.88340957E-02  1.94945753E-09  5.20233980E-09  3.79185213E-04
  9.13556640E-10  3.50789614E-13 -6.56768053E-04  3.42332917E-10 -7.24041552E-03
 -4.62927559E-02 -2.05591167E-02  1.18966303E-03  1.19042402E-01  3.63054773E-02
  6.17574465E-09  1.64808137E-08 -2.46846235E-02  1.44294628E-08  3.85070849E-08
 -4.55435191E-02 -7.10802112E-09 -1.89687318E-08 -6.84744215E-01 -3.67013471E-08
 -9.79424314E-08  6.01533612E-02 -1.85912048E-09  5.53975062E-13 -1.04188678E-01
 -6.96659370E-10  8.44678812E-02 -4.53719003E-09  1.12423725E-12 -1.46302662E-01
 -1.70019087E-09 -1.21471868E-10  4.93848141E-03 -1.85869602E-11  1.56816429E-10
 -2.67962299E-13 -6.37555209E-03  7.19690833E-11 -1.78157165E-07  3.30610350E-07
  6.66636986E-07 -1.06314158E-08 -2.67613777E-03 -4.62485466E-03  2.72179473E-07
  2.50499624E-02  4.32909085E-02 -4.92135201E-09  1.47462791E-03 -3.68772023E-11
  8.46344218E-09  8.53282478E-04 -2.02652110E-08 -1.35478275E-07 -3.80218756E-07
  6.55677337E-08 -1.97728270E-07 -1.34394564E-07  2.04059409E-01  3.52651916E-01
 -8.56292270E-07  1.01852091E+00  1.76019008E+00  1.67995887E-07 -2.57502937E-01
 -4.45012089E-01  1.40086656E-06 -1.04654401E+00 -1.80861911E+00 -2.02256605E-09
 -1.02895950E-02 -2.14511506E-09 -2.11904240E-11 -5.95399764E-03  1.14728283E-07
  1.06611817E-02 -2.49529371E-10 -1.99125418E-07  6.16901352E-03  1.67083006E-04
 -1.48532860E-08  3.94699917E-05 -2.15703234E-04  9.96705378E-10  2.05125582E-08
 -1.52866620E-04  2.98559953E-08 -5.54043829E-08 -1.11716508E-07  1.78163774E-09
 -4.62485466E-03  2.67613777E-03 -4.56124588E-08  4.32909085E-02 -2.50499624E-02
  8.52267985E-10 -8.53282478E-04 -3.02906307E-11 -1.40242257E-09  1.47462791E-03
  3.39609390E-09  2.27037813E-08  6.37179606E-08 -1.09879993E-08  3.31356643E-08
  2.25221635E-08  3.52651916E-01 -2.04059409E-01  1.43499506E-07  1.76019008E+00
 -1.01852091E+00 -2.81531574E-08 -4.45012089E-01  2.57502937E-01 -2.34760420E-07
 -1.80861911E+00  1.04654401E+00  1.94085844E-09  5.95399764E-03 -1.76207333E-09
  9.28418288E-10 -1.02895950E-02 -1.90403804E-08 -6.16901354E-03 -2.04592045E-10
  3.34772971E-08  1.06611817E-02 -9.66813396E-05  1.80965945E-09  6.82113517E-05
  1.24815072E-04  8.18766172E-10 -3.96386791E-09 -2.64181429E-04  3.30181933E-01
 -4.54990694E-01 -1.12543821E+00  1.87661507E-02 -1.45974363E-09 -3.89551939E-09
 -4.59273593E-01  1.67522387E-08  4.47055568E-08  7.95608933E-03 -2.42525263E-10
 -2.10760218E-13 -1.37803510E-02 -9.08808609E-11  3.51539165E-02  2.35030088E-01
  6.36079337E-01 -1.09315859E-01  2.69254729E-01  2.18001488E-01  8.92116208E-08
  2.38073347E-07  1.42664398E+00  4.52079390E-07  1.20643533E-06 -2.75926423E-01
 -1.13498207E-07 -3.02885391E-07 -2.21482282E+00 -4.54799326E-07 -1.21369394E-06
 -3.55004063E-03 -1.26947957E-08 -1.69367963E-12  6.14885074E-03 -4.75704258E-09
 -1.92645097E-01 -1.33880275E-08 -9.35474844E-12  3.33671095E-01 -5.01682747E-09
 -8.40790366E-10  2.57614225E-02 -1.28623336E-10  1.08545890E-09  2.79506904E-13
 -3.32578534E-02  4.98161760E-10  5.55706815E-09 -5.62975866E-08 -6.41061095E-08
 -3.56433865E-10  7.46610988E-03  3.39885082E-02 -3.66490955E-08 -1.02813762E-01
 -4.68046473E-01  7.21868393E-10  3.37479016E-03 -2.86982233E-10 -2.13646515E-09
  7.41325685E-04 -6.75991463E-10 -5.37133584E-09 -9.34041169E-09 -4.99896728E-09
  9.67894430E-08  3.67879315E-10  5.39014290E-03  2.45379347E-02  4.73065609E-08
  3.48321652E-02  1.58568967E-01 -8.78345697E-10 -6.41913520E-03 -2.92222902E-02
 -1.02754965E-07  1.58181611E-02  7.20101513E-02  3.17690564E-09  1.50216190E-01
  9.97309510E-10 -2.42302881E-09  3.29973464E-02 -1.56645031E-09  5.94605081E-01
  6.46850462E-09  2.26868469E-08  1.30614349E-01 -3.20368107E-03  9.04320319E-10
 -2.87300196E-04  4.13593447E-03 -1.19204392E-09 -4.17284707E-09  1.11270888E-03
 -7.96141285E-10  8.06553936E-09  9.18423468E-09  5.10652308E-11 -3.39885082E-02
  7.46610988E-03  5.25057967E-09  4.68046473E-01 -1.02813762E-01 -4.06927885E-10
  7.41325685E-04  4.43077774E-10  1.30853732E-10 -3.37479016E-03  9.68481821E-11
  7.69540842E-10  1.33819337E-09  7.16180698E-10 -1.38666834E-08 -5.26995687E-11
 -2.45379346E-02  5.39014288E-03 -6.77741184E-09 -1.58568967E-01  3.48321651E-02
  1.25829225E-10  2.92222901E-02 -6.41913517E-03  1.47213012E-08 -7.20101515E-02
  1.58181613E-02  5.99608719E-10  3.29973464E-02 -1.53977632E-09  9.56099068E-10
 -1.50216190E-01  7.06545420E-09  1.30614349E-01 -9.98686866E-09  6.99419807E-10
 -5.94605081E-01 -7.03738884E-04 -1.28039662E-09  1.30789732E-03  9.08522993E-04
  1.84040477E-09 -2.93606487E-10 -5.06546454E-03  2.35011568E-12  3.48428990E-12
  9.11271548E-12 -7.35173962E-14 -2.30653452E-10  4.41539494E-10  5.24888196E-12
  1.52366175E-09 -2.91679970E-09 -7.30794579E-03 -8.61393214E-11  1.04203340E-03
 -4.21924447E-03  4.49955520E-11 -3.11564311E-13 -2.00027424E-12 -5.97751146E-12
  1.36916063E-12 -5.61691244E-12 -2.63490572E-12  3.29554369E-10 -6.31237240E-10
 -2.19997643E-11  3.24281236E-09 -6.20999526E-09  3.63006529E-12 -3.55986671E-10
  6.81968624E-10  2.40733750E-11 -2.17602099E-09  4.16719827E-09 -1.40269267E-01
  2.72194328E-09  2.00008682E-02 -8.09844991E-02 -1.42189915E-09 -7.67315441E-01
  8.60906001E-09  1.09410816E-01 -4.43009776E-01 -4.49726237E-09  3.14457670E-09
  6.12894833E-03  8.66799247E-10  2.19962035E-09 -9.57332723E-04  4.74746296E-03
  3.24533048E-10  1.62915828E-12  5.57984472E-12  1.10892072E-11 -7.35530674E-14
  4.41538823E-10  2.30651939E-10  6.42643333E-12 -2.91676761E-09 -1.52370000E-09
 -9.02427393E-04 -4.49997596E-11 -8.43848893E-03 -5.21016698E-04 -8.61375608E-11
 -2.91787846E-13 -1.84311196E-12 -5.62696630E-12  1.51824016E-12 -8.52978047E-12
 -2.62196791E-12 -6.31122004E-10 -3.29871634E-10 -2.33853182E-11 -6.20927179E-09
 -3.24478350E-09  3.66328342E-12  6.81812344E-10  3.56413920E-10  2.69105982E-11
  4.16668253E-09  2.17744117E-09 -1.73212600E-02  1.42189282E-09 -1.61968998E-01
 -1.00004341E-02  2.72194246E-09 -9.47525464E-02  4.49718381E-09 -8.86019553E-01
 -5.47054082E-02  8.60907961E-09 -6.67920573E-10  7.56837970E-04  3.75795454E-09
 -6.40738089E-10  7.75257455E-03  5.86244171E-04  7.77477761E-10  4.73166389E-01
 -1.35352623E+00 -2.10651640E+00 -1.61116945E-03 -1.35751278E-10 -3.62272086E-10
 -1.19658744E+00  4.23123605E-09  1.12915874E-08  5.43787823E-02 -9.13910292E-11
 -5.19564163E-14 -9.41868138E-02 -3.42460100E-11 -1.45043965E-01 -1.00624656E+00
 -2.65076873E+00  8.68426637E-02  5.14914296E+00 -4.38939932E-01 -1.06471567E-09
 -2.84131250E-09 -1.27421546E+00  1.26415947E-10  3.37382008E-10  5.70474471E-01
  1.62919998E-09  4.34769623E-09 -9.07510758E-01  4.76680136E-10  1.27206661E-09
  2.53035001E-02 -6.55820568E-09 -3.86755518E-13 -4.38269478E-02 -2.45752212E-09
 -2.40913108E-01 -3.12409645E-09 -2.88645396E-13  4.17273743E-01 -1.17068688E-09
  1.96655656E-11  8.88118377E-02  3.00652079E-12 -2.53850929E-11 -1.29685112E-13
 -1.14655589E-01 -1.16499512E-11 -2.11076988E-01  2.06769252E+00  1.63394859E-01
  5.55462357E-02 -1.10356413E-10 -2.94497728E-10 -2.54723968E-02  2.07824187E-09
  5.54601405E-09 -3.06668684E-02 -1.10948116E-09  4.75325468E-14  5.31165742E-02
 -4.15747819E-10  7.50500304E-02  5.20986777E-01  1.25634551E+00 -2.79483690E-02
 -2.33162692E+00  1.06351929E-01 -1.60421868E-09 -4.28106228E-09  3.89197664E-01
 -1.03694858E-08 -2.76722784E-08 -1.46991682E-01  2.54194014E-09  6.78349604E-09
  9.56870034E-01  4.65865289E-09  1.24321967E-08  8.43857616E-02  1.37321870E-09
 -1.04559027E-13 -1.46160427E-01  5.14577654E-10  6.00844674E-01  3.94997275E-09
  1.67122288E-12 -1.04069350E+00  1.48016127E-09 -5.66357235E-10 -3.53654766E-02
 -8.66395742E-11  7.31165974E-10 -3.82010995E-13  4.56566340E-02  3.35563202E-10
 -2.38290822E-10 -8.11324330E-11  5.59306140E-11  1.08084260E-11  9.32614229E-02
 -3.65176868E-02 -6.79879371E-11 -1.22242760E+00  4.78656948E-01  9.47353999E-10
  7.59889754E-03 -1.20529492E-09  5.23979341E-10 -1.94065961E-02  2.03955485E-12
  1.18575597E-11  1.02813547E-10 -2.01785883E-11  1.33653808E-10  1.39592320E-11
  4.72525748E-02 -1.85023418E-02 -2.28328529E-11  2.43450110E-01 -9.53259619E-02
 -4.80320160E-11 -5.69779429E-02  2.23104324E-02 -9.64621322E-11  2.87815418E-01
 -1.12697758E-01  1.08526736E-10  4.19332771E-02 -1.47607355E-10  7.71403769E-11
 -1.07092136E-01  1.27781354E-09  3.28683333E-01 -1.73336455E-09  9.00072701E-10
 -8.39414487E-01 -2.48469145E-04 -2.21036649E-10  2.59057171E-04  3.20772287E-04
  2.95190656E-10 -1.47545062E-10 -1.00332411E-03 -1.62279494E-08 -5.52401753E-09
  3.80858102E-09  7.36140301E-10 -3.65176868E-02 -9.32614229E-02 -4.62868393E-09
  4.78656948E-01  1.22242760E+00  1.72131736E-09  1.94065961E-02  1.08242608E-09
 -5.70812438E-10  7.59889754E-03  1.38792204E-10  8.06785539E-10  6.99996378E-09
 -1.37401424E-09  9.10296335E-09  9.51313979E-10 -1.85023418E-02 -4.72525748E-02
 -1.55283844E-09 -9.53259619E-02 -2.43450110E-01 -3.27195188E-09  2.23104324E-02
  5.69779429E-02 -6.56964440E-09 -1.12697758E-01 -2.87815418E-01 -2.99403987E-10
  1.07092136E-01  1.32564198E-10  8.13809865E-10  4.19332771E-02 -3.28559335E-09
  8.39414487E-01  1.55663213E-09  9.15747960E-09  3.28683333E-01 -6.34557883E-04
 -1.01383165E-09 -1.01437103E-04  8.19210705E-04 -2.65093178E-10  8.26817312E-10
  3.92864214E-04  6.42110303E-01  3.58984757E+00  1.11724899E+00 -1.08170221E-01
  3.92557745E-10  1.04758451E-09  3.28062279E+00  1.67715429E-09  4.47572311E-09
 -7.77273035E-02  7.82660213E-10 -4.48670994E-13  1.34627639E-01  2.93279527E-10
 -5.18645321E-02 -3.56369273E-01 -9.76660806E-01  2.83387596E-01 -3.34187433E+00
  1.26461453E+00  1.99077101E-10  5.31261780E-10  4.91277107E+00  3.27962533E-09
  8.75209249E-09 -1.40953691E+00 -3.99398019E-10 -1.06584314E-09 -2.77513547E-01
 -2.10387594E-09 -5.61446922E-09  1.47841127E-03 -2.06274214E-09 -4.16743676E-13
 -2.56068344E-03 -7.72962754E-10  1.01647257E+00  5.16544246E-09  8.26541338E-13
 -1.76058213E+00  1.93561172E-09 -7.20169344E-10 -7.20025714E-02 -1.10166397E-10
  9.29737707E-10  1.39487698E-13  9.29549200E-02  4.26697088E-10 -2.42918646E+00
  2.76528596E+00  9.97508469E-01 -1.92890205E-01  2.97671838E-09  7.94374929E-09
  9.64039917E-01  1.40872562E-09  3.75933716E-09  1.06039131E-02  1.16689200E-08
 -3.26572165E-13 -1.83665163E-02  4.37263479E-09 -1.25002237E-02 -1.02783808E-01
 -3.05081614E-01  3.21452946E-03 -7.10838242E-01  9.97246047E-02  1.80531809E-10
  4.81750244E-10  6.91453656E-01 -1.31446693E-09 -3.50786115E-09  7.92426133E-02
 -5.15822087E-10 -1.37649488E-09  1.86014593E-01 -3.61113765E-10 -9.63649845E-10
  4.19898155E-01 -7.61718623E-08  9.78523960E-12 -7.27284939E-01 -2.85435050E-08
 -1.27707483E-01  6.12397455E-08 -7.00536540E-12  2.21195849E-01  2.29480697E-08
 -1.56251064E-08 -3.16343447E-01 -2.39035182E-09  2.01719223E-08 -1.42412929E-12
  4.08397634E-01  9.25774526E-09 -2.00156086E-07  2.43559432E-07  8.21932804E-08
 -1.49934566E-08 -6.64553212E-02 -9.02633706E-02  8.46226554E-08 -5.60309906E-02
 -7.61044559E-02  2.54399839E-09 -1.27394793E-01  2.64444505E-09 -9.59077995E-10