 Entering Gaussian System, Link 0=/share/apps/gaussian/G16B01/AVX2/g16/g16
 Initial command:
 /share/apps/gaussian/G16B01/AVX2/g16/l1.exe "/scratch/scr/ds/xc05n04/202207211031.74757/Gau-74781.inp" -scrdir="/scratch/scr/ds/xc05n04/202207211031.74757/"
 Entering Link 1 = /share/apps/gaussian/G16B01/AVX2/g16/l1.exe PID=     74782.
  
 Copyright (c) 1988-2017, Gaussian, Inc.  All Rights Reserved.
  
 This is part of the Gaussian(R) 16 program.  It is based on
 the Gaussian(R) 09 system (copyright 2009, Gaussian, Inc.),
 the Gaussian(R) 03 system (copyright 2003, Gaussian, Inc.),
 the Gaussian(R) 98 system (copyright 1998, Gaussian, Inc.),
 the Gaussian(R) 94 system (copyright 1995, Gaussian, Inc.),
 the Gaussian 92(TM) system (copyright 1992, Gaussian, Inc.),
 the Gaussian 90(TM) system (copyright 1990, Gaussian, Inc.),
 the Gaussian 88(TM) system (copyright 1988, Gaussian, Inc.),
 the Gaussian 86(TM) system (copyright 1986, Carnegie Mellon
 University), and the Gaussian 82(TM) system (copyright 1983,
 Carnegie Mellon University). Gaussian is a federally registered
 trademark of Gaussian, Inc.
  
 This software contains proprietary and confidential information,
 including trade secrets, belonging to Gaussian, Inc.
  
 This software is provided under written license and may be
 used, copied, transmitted, or stored only in accord with that
 written license.
  
 The following legend is applicable only to US Government
 contracts under FAR:
  
                    RESTRICTED RIGHTS LEGEND
  
 Use, reproduction and disclosure by the US Government is
 subject to restrictions as set forth in subparagraphs (a)
 and (c) of the Commercial Computer Software - Restricted
 Rights clause in FAR 52.227-19.
  
 Gaussian, Inc.
 340 Quinnipiac St., Bldg. 40, Wallingford CT 06492
  
  
 ---------------------------------------------------------------
 Warning -- This program may not be used in any manner that
 competes with the business of Gaussian, Inc. or will provide
 assistance to any competitor of Gaussian, Inc.  The licensee
 of this program is prohibited from giving any competitor of
 Gaussian, Inc. access to this program.  By using this program,
 the user acknowledges that Gaussian, Inc. is engaged in the
 business of creating and licensing software in the field of
 computational chemistry and represents and warrants to the
 licensee that it is not a competitor of Gaussian, Inc. and that
 it will not use this program in any manner prohibited above.
 ---------------------------------------------------------------
  

 Cite this work as:
 Gaussian 16, Revision B.01,
 M. J. Frisch, G. W. Trucks, H. B. Schlegel, G. E. Scuseria, 
 M. A. Robb, J. R. Cheeseman, G. Scalmani, V. Barone, 
 G. A. Petersson, H. Nakatsuji, X. Li, M. Caricato, A. V. Marenich, 
 J. Bloino, B. G. Janesko, R. Gomperts, B. Mennucci, H. P. Hratchian, 
 J. V. Ortiz, A. F. Izmaylov, J. L. Sonnenberg, D. Williams-Young, 
 F. Ding, F. Lipparini, F. Egidi, J. Goings, B. Peng, A. Petrone, 
 T. Henderson, D. Ranasinghe, V. G. Zakrzewski, J. Gao, N. Rega, 
 G. Zheng, W. Liang, M. Hada, M. Ehara, K. Toyota, R. Fukuda, 
 J. Hasegawa, M. Ishida, T. Nakajima, Y. Honda, O. Kitao, H. Nakai, 
 T. Vreven, K. Throssell, J. A. Montgomery, Jr., J. E. Peralta, 
 F. Ogliaro, M. J. Bearpark, J. J. Heyd, E. N. Brothers, K. N. Kudin, 
 V. N. Staroverov, T. A. Keith, R. Kobayashi, J. Normand, 
 K. Raghavachari, A. P. Rendell, J. C. Burant, S. S. Iyengar, 
 J. Tomasi, M. Cossi, J. M. Millam, M. Klene, C. Adamo, R. Cammi, 
 J. W. Ochterski, R. L. Martin, K. Morokuma, O. Farkas, 
 J. B. Foresman, and D. J. Fox, Gaussian, Inc., Wallingford CT, 2016.
 
 ******************************************
 Gaussian 16:  ES64L-G16RevB.01 20-Dec-2017
                21-Jul-2022 
 ******************************************
 %nproc=48
 Will use up to   48 processors via shared memory.
 %chk=/scratch/scr/ds/xc05n04/202207211031.74757/pen_00.chk
 %mem=100GB
 ----------------------------------------------------------------------
 #p X3LYP/gen int=(grid=ultrafine,acc2e=12) test scf=(xqc,tight,maxcyc=
 200,novaracc,noincfock) geom=check guess=read opt(maxcyc=200) freq nos
 ymm
 ----------------------------------------------------------------------
 1/6=200,18=20,19=15,26=4,29=2,38=1/1,3;
 2/9=110,12=2,15=1,40=1/2;
 3/5=7,11=2,14=-4,25=1,27=12,30=1,71=1,74=-33,75=-5,116=-2/1,2,3;
 4/5=1/1;
 5/5=100002,7=200,8=3,13=1,32=2,38=6,87=12/2,8;
 6/7=2,8=2,9=2,10=2,28=1,87=12/1;
 7/30=1,87=12/1,2,3,16;
 1/6=200,18=20,19=15,26=4/3(2);
 2/9=110,15=1/2;
 99//99;
 2/9=110,15=1/2;
 3/5=7,6=1,11=2,14=-2,25=1,27=12,30=1,71=1,74=-33,75=-5,82=7/1,2,3;
 4/5=5,16=3,69=1/1;
 5/5=100002,7=200,8=3,13=1,32=2,38=1,87=12/2,8;
 7/30=1,87=12/1,2,3,16;
 1/6=200,18=20,19=15,26=4/3(-5);
 2/9=110,15=1/2;
 6/7=2,8=2,9=2,10=2,19=2,28=1,87=12/1;
 99/9=1/99;
 Leave Link    1 at Thu Jul 21 10:31:03 2022, MaxMem= 13421772800 cpu:               2.9 elap:               0.1
 (Enter /share/apps/gaussian/G16B01/AVX2/g16/l101.exe)
 ----------------
 neutral pentance
 ----------------
 Structure from the checkpoint file:  "/scratch/scr/ds/xc05n04/202207211031.74757/pen_00.chk"
 Charge =  0 Multiplicity = 1
 Redundant internal coordinates found in file.  (old form).
 C,0,-6.1218053484,-0.7171513386,0.
 C,0,-4.9442285958,-1.4113046519,0.
 C,0,-3.6803098659,-0.7276441672,0.
 C,0,-2.4688049693,-1.4084918967,0.
 C,0,-1.2270315983,-0.7284607452,0.
 C,0,0.,-1.4090846909,0.
 C,0,1.2270315983,-0.7284607452,0.
 C,0,2.4688049693,-1.4084918967,0.
 C,0,3.6803098659,-0.7276441672,0.
 C,0,4.9442285958,-1.4113046519,0.
 C,0,6.1218053484,-0.7171513386,0.
 C,0,6.1218053484,0.7171513386,0.
 C,0,4.9442285958,1.4113046519,0.
 C,0,3.6803098659,0.7276441672,0.
 C,0,2.4688049693,1.4084918967,0.
 C,0,1.2270315983,0.7284607452,0.
 C,0,0.,1.4090846909,0.
 C,0,-1.2270315983,0.7284607452,0.
 C,0,-2.4688049693,1.4084918967,0.
 C,0,-3.6803098659,0.7276441672,0.
 C,0,-4.9442285958,1.4113046519,0.
 C,0,-6.1218053484,0.7171513386,0.
 H,0,-7.069291709,-1.2490690741,0.
 H,0,-4.94307352,-2.4988605526,0.
 H,0,-2.4690554105,-2.4968374995,0.
 H,0,0.,-2.4973235097,0.
 H,0,2.4690554105,-2.4968374995,0.
 H,0,4.94307352,-2.4988605526,0.
 H,0,7.069291709,-1.2490690741,0.
 H,0,7.069291709,1.2490690741,0.
 H,0,4.94307352,2.4988605526,0.
 H,0,2.4690554105,2.4968374995,0.
 H,0,0.,2.4973235097,0.
 H,0,-2.4690554105,2.4968374995,0.
 H,0,-4.94307352,2.4988605526,0.
 H,0,-7.069291709,1.2490690741,0.
 Recover connectivity data from disk.
 ITRead=  0  0  0  0  0  0  0  0  0  0  0  0  0  0  0  0  0  0  0  0
 ITRead=  0  0  0  0  0  0  0  0  0  0  0  0  0  0  0  0
 MicOpt= -1 -1 -1 -1 -1 -1 -1 -1 -1 -1 -1 -1 -1 -1 -1 -1 -1 -1 -1 -1
 MicOpt= -1 -1 -1 -1 -1 -1 -1 -1 -1 -1 -1 -1 -1 -1 -1 -1
 NAtoms=     36 NQM=       36 NQMF=       0 NMMI=      0 NMMIF=      0
                NMic=       0 NMicF=      0.
                    Isotopes and Nuclear Properties:
 (Nuclear quadrupole moments (NQMom) in fm**2, nuclear magnetic moments (NMagM)
  in nuclear magnetons)

  Atom         1           2           3           4           5           6           7           8           9          10
 IAtWgt=          12          12          12          12          12          12          12          12          12          12
 AtmWgt=  12.0000000  12.0000000  12.0000000  12.0000000  12.0000000  12.0000000  12.0000000  12.0000000  12.0000000  12.0000000
 NucSpn=           0           0           0           0           0           0           0           0           0           0
 AtZEff=   3.6000000   3.6000000   3.6000000   3.6000000   3.6000000   3.6000000   3.6000000   3.6000000   3.6000000   3.6000000
 NQMom=    0.0000000   0.0000000   0.0000000   0.0000000   0.0000000   0.0000000   0.0000000   0.0000000   0.0000000   0.0000000
 NMagM=    0.0000000   0.0000000   0.0000000   0.0000000   0.0000000   0.0000000   0.0000000   0.0000000   0.0000000   0.0000000
 AtZNuc=   6.0000000   6.0000000   6.0000000   6.0000000   6.0000000   6.0000000   6.0000000   6.0000000   6.0000000   6.0000000

  Atom        11          12          13          14          15          16          17          18          19          20
 IAtWgt=          12          12          12          12          12          12          12          12          12          12
 AtmWgt=  12.0000000  12.0000000  12.0000000  12.0000000  12.0000000  12.0000000  12.0000000  12.0000000  12.0000000  12.0000000
 NucSpn=           0           0           0           0           0           0           0           0           0           0
 AtZEff=   3.6000000   3.6000000   3.6000000   3.6000000   3.6000000   3.6000000   3.6000000   3.6000000   3.6000000   3.6000000
 NQMom=    0.0000000   0.0000000   0.0000000   0.0000000   0.0000000   0.0000000   0.0000000   0.0000000   0.0000000   0.0000000
 NMagM=    0.0000000   0.0000000   0.0000000   0.0000000   0.0000000   0.0000000   0.0000000   0.0000000   0.0000000   0.0000000
 AtZNuc=   6.0000000   6.0000000   6.0000000   6.0000000   6.0000000   6.0000000   6.0000000   6.0000000   6.0000000   6.0000000

  Atom        21          22          23          24          25          26          27          28          29          30
 IAtWgt=          12          12           1           1           1           1           1           1           1           1
 AtmWgt=  12.0000000  12.0000000   1.0078250   1.0078250   1.0078250   1.0078250   1.0078250   1.0078250   1.0078250   1.0078250
 NucSpn=           0           0           1           1           1           1           1           1           1           1
 AtZEff=   3.6000000   3.6000000   1.0000000   1.0000000   1.0000000   1.0000000   1.0000000   1.0000000   1.0000000   1.0000000
 NQMom=    0.0000000   0.0000000   0.0000000   0.0000000   0.0000000   0.0000000   0.0000000   0.0000000   0.0000000   0.0000000
 NMagM=    0.0000000   0.0000000   2.7928460   2.7928460   2.7928460   2.7928460   2.7928460   2.7928460   2.7928460   2.7928460
 AtZNuc=   6.0000000   6.0000000   1.0000000   1.0000000   1.0000000   1.0000000   1.0000000   1.0000000   1.0000000   1.0000000

  Atom        31          32          33          34          35          36
 IAtWgt=           1           1           1           1           1           1
 AtmWgt=   1.0078250   1.0078250   1.0078250   1.0078250   1.0078250   1.0078250
 NucSpn=           1           1           1           1           1           1
 AtZEff=   1.0000000   1.0000000   1.0000000   1.0000000   1.0000000   1.0000000
 NQMom=    0.0000000   0.0000000   0.0000000   0.0000000   0.0000000   0.0000000
 NMagM=    2.7928460   2.7928460   2.7928460   2.7928460   2.7928460   2.7928460
 AtZNuc=   1.0000000   1.0000000   1.0000000   1.0000000   1.0000000   1.0000000
 Leave Link  101 at Thu Jul 21 10:31:03 2022, MaxMem= 13421772800 cpu:              18.2 elap:               0.4
 (Enter /share/apps/gaussian/G16B01/AVX2/g16/l103.exe)

 GradGradGradGradGradGradGradGradGradGradGradGradGradGradGradGradGradGrad
 Berny optimization.
 Initialization pass.
                           ----------------------------
                           !    Initial Parameters    !
                           ! (Angstroms and Degrees)  !
 --------------------------                            --------------------------
 ! Name  Definition              Value          Derivative Info.                !
 --------------------------------------------------------------------------------
 ! R1    R(1,2)                  1.3669         estimate D2E/DX2                !
 ! R2    R(1,22)                 1.4343         estimate D2E/DX2                !
 ! R3    R(1,23)                 1.0866         estimate D2E/DX2                !
 ! R4    R(2,3)                  1.437          estimate D2E/DX2                !
 ! R5    R(2,24)                 1.0876         estimate D2E/DX2                !
 ! R6    R(3,4)                  1.3897         estimate D2E/DX2                !
 ! R7    R(3,20)                 1.4553         estimate D2E/DX2                !
 ! R8    R(4,5)                  1.4158         estimate D2E/DX2                !
 ! R9    R(4,25)                 1.0883         estimate D2E/DX2                !
 ! R10   R(5,6)                  1.4032         estimate D2E/DX2                !
 ! R11   R(5,18)                 1.4569         estimate D2E/DX2                !
 ! R12   R(6,7)                  1.4032         estimate D2E/DX2                !
 ! R13   R(6,26)                 1.0882         estimate D2E/DX2                !
 ! R14   R(7,8)                  1.4158         estimate D2E/DX2                !
 ! R15   R(7,16)                 1.4569         estimate D2E/DX2                !
 ! R16   R(8,9)                  1.3897         estimate D2E/DX2                !
 ! R17   R(8,27)                 1.0883         estimate D2E/DX2                !
 ! R18   R(9,10)                 1.437          estimate D2E/DX2                !
 ! R19   R(9,14)                 1.4553         estimate D2E/DX2                !
 ! R20   R(10,11)                1.3669         estimate D2E/DX2                !
 ! R21   R(10,28)                1.0876         estimate D2E/DX2                !
 ! R22   R(11,12)                1.4343         estimate D2E/DX2                !
 ! R23   R(11,29)                1.0866         estimate D2E/DX2                !
 ! R24   R(12,13)                1.3669         estimate D2E/DX2                !
 ! R25   R(12,30)                1.0866         estimate D2E/DX2                !
 ! R26   R(13,14)                1.437          estimate D2E/DX2                !
 ! R27   R(13,31)                1.0876         estimate D2E/DX2                !
 ! R28   R(14,15)                1.3897         estimate D2E/DX2                !
 ! R29   R(15,16)                1.4158         estimate D2E/DX2                !
 ! R30   R(15,32)                1.0883         estimate D2E/DX2                !
 ! R31   R(16,17)                1.4032         estimate D2E/DX2                !
 ! R32   R(17,18)                1.4032         estimate D2E/DX2                !
 ! R33   R(17,33)                1.0882         estimate D2E/DX2                !
 ! R34   R(18,19)                1.4158         estimate D2E/DX2                !
 ! R35   R(19,20)                1.3897         estimate D2E/DX2                !
 ! R36   R(19,34)                1.0883         estimate D2E/DX2                !
 ! R37   R(20,21)                1.437          estimate D2E/DX2                !
 ! R38   R(21,22)                1.3669         estimate D2E/DX2                !
 ! R39   R(21,35)                1.0876         estimate D2E/DX2                !
 ! R40   R(22,36)                1.0866         estimate D2E/DX2                !
 ! A1    A(2,1,22)             120.5183         estimate D2E/DX2                !
 ! A2    A(2,1,23)             120.1719         estimate D2E/DX2                !
 ! A3    A(22,1,23)            119.3098         estimate D2E/DX2                !
 ! A4    A(1,2,3)              121.0725         estimate D2E/DX2                !
 ! A5    A(1,2,24)             120.5792         estimate D2E/DX2                !
 ! A6    A(3,2,24)             118.3483         estimate D2E/DX2                !
 ! A7    A(2,3,4)              122.2555         estimate D2E/DX2                !
 ! A8    A(2,3,20)             118.4092         estimate D2E/DX2                !
 ! A9    A(4,3,20)             119.3353         estimate D2E/DX2                !
 ! A10   A(3,4,5)              121.9583         estimate D2E/DX2                !
 ! A11   A(3,4,25)             119.3222         estimate D2E/DX2                !
 ! A12   A(5,4,25)             118.7196         estimate D2E/DX2                !
 ! A13   A(4,5,6)              122.2768         estimate D2E/DX2                !
 ! A14   A(4,5,18)             118.7064         estimate D2E/DX2                !
 ! A15   A(6,5,18)             119.0168         estimate D2E/DX2                !
 ! A16   A(5,6,7)              121.9665         estimate D2E/DX2                !
 ! A17   A(5,6,26)             119.0168         estimate D2E/DX2                !
 ! A18   A(7,6,26)             119.0168         estimate D2E/DX2                !
 ! A19   A(6,7,8)              122.2768         estimate D2E/DX2                !
 ! A20   A(6,7,16)             119.0168         estimate D2E/DX2                !
 ! A21   A(8,7,16)             118.7064         estimate D2E/DX2                !
 ! A22   A(7,8,9)              121.9583         estimate D2E/DX2                !
 ! A23   A(7,8,27)             118.7196         estimate D2E/DX2                !
 ! A24   A(9,8,27)             119.3222         estimate D2E/DX2                !
 ! A25   A(8,9,10)             122.2555         estimate D2E/DX2                !
 ! A26   A(8,9,14)             119.3353         estimate D2E/DX2                !
 ! A27   A(10,9,14)            118.4092         estimate D2E/DX2                !
 ! A28   A(9,10,11)            121.0725         estimate D2E/DX2                !
 ! A29   A(9,10,28)            118.3483         estimate D2E/DX2                !
 ! A30   A(11,10,28)           120.5792         estimate D2E/DX2                !
 ! A31   A(10,11,12)           120.5183         estimate D2E/DX2                !
 ! A32   A(10,11,29)           120.1719         estimate D2E/DX2                !
 ! A33   A(12,11,29)           119.3098         estimate D2E/DX2                !
 ! A34   A(11,12,13)           120.5183         estimate D2E/DX2                !
 ! A35   A(11,12,30)           119.3098         estimate D2E/DX2                !
 ! A36   A(13,12,30)           120.1719         estimate D2E/DX2                !
 ! A37   A(12,13,14)           121.0725         estimate D2E/DX2                !
 ! A38   A(12,13,31)           120.5792         estimate D2E/DX2                !
 ! A39   A(14,13,31)           118.3483         estimate D2E/DX2                !
 ! A40   A(9,14,13)            118.4092         estimate D2E/DX2                !
 ! A41   A(9,14,15)            119.3353         estimate D2E/DX2                !
 ! A42   A(13,14,15)           122.2555         estimate D2E/DX2                !
 ! A43   A(14,15,16)           121.9583         estimate D2E/DX2                !
 ! A44   A(14,15,32)           119.3222         estimate D2E/DX2                !
 ! A45   A(16,15,32)           118.7196         estimate D2E/DX2                !
 ! A46   A(7,16,15)            118.7064         estimate D2E/DX2                !
 ! A47   A(7,16,17)            119.0168         estimate D2E/DX2                !
 ! A48   A(15,16,17)           122.2768         estimate D2E/DX2                !
 ! A49   A(16,17,18)           121.9665         estimate D2E/DX2                !
 ! A50   A(16,17,33)           119.0168         estimate D2E/DX2                !
 ! A51   A(18,17,33)           119.0168         estimate D2E/DX2                !
 ! A52   A(5,18,17)            119.0168         estimate D2E/DX2                !
 ! A53   A(5,18,19)            118.7064         estimate D2E/DX2                !
 ! A54   A(17,18,19)           122.2768         estimate D2E/DX2                !
 ! A55   A(18,19,20)           121.9583         estimate D2E/DX2                !
 ! A56   A(18,19,34)           118.7196         estimate D2E/DX2                !
 ! A57   A(20,19,34)           119.3222         estimate D2E/DX2                !
 ! A58   A(3,20,19)            119.3353         estimate D2E/DX2                !
 ! A59   A(3,20,21)            118.4092         estimate D2E/DX2                !
 ! A60   A(19,20,21)           122.2555         estimate D2E/DX2                !
 ! A61   A(20,21,22)           121.0725         estimate D2E/DX2                !
 ! A62   A(20,21,35)           118.3483         estimate D2E/DX2                !
 ! A63   A(22,21,35)           120.5792         estimate D2E/DX2                !
 ! A64   A(1,22,21)            120.5183         estimate D2E/DX2                !
 ! A65   A(1,22,36)            119.3098         estimate D2E/DX2                !
 ! A66   A(21,22,36)           120.1719         estimate D2E/DX2                !
 ! D1    D(22,1,2,3)             0.0            estimate D2E/DX2                !
 ! D2    D(22,1,2,24)          180.0            estimate D2E/DX2                !
 ! D3    D(23,1,2,3)           180.0            estimate D2E/DX2                !
 ! D4    D(23,1,2,24)            0.0            estimate D2E/DX2                !
 ! D5    D(2,1,22,21)            0.0            estimate D2E/DX2                !
 ! D6    D(2,1,22,36)          180.0            estimate D2E/DX2                !
 ! D7    D(23,1,22,21)         180.0            estimate D2E/DX2                !
 ! D8    D(23,1,22,36)           0.0            estimate D2E/DX2                !
 ! D9    D(1,2,3,4)            180.0            estimate D2E/DX2                !
 ! D10   D(1,2,3,20)             0.0            estimate D2E/DX2                !
 ! D11   D(24,2,3,4)             0.0            estimate D2E/DX2                !
 ! D12   D(24,2,3,20)          180.0            estimate D2E/DX2                !
 ! D13   D(2,3,4,5)            180.0            estimate D2E/DX2                !
 ! D14   D(2,3,4,25)             0.0            estimate D2E/DX2                !
 ! D15   D(20,3,4,5)             0.0            estimate D2E/DX2                !
 ! D16   D(20,3,4,25)          180.0            estimate D2E/DX2                !
 ! D17   D(2,3,20,19)          180.0            estimate D2E/DX2                !
 ! D18   D(2,3,20,21)            0.0            estimate D2E/DX2                !
 ! D19   D(4,3,20,19)            0.0            estimate D2E/DX2                !
 ! D20   D(4,3,20,21)          180.0            estimate D2E/DX2                !
 ! D21   D(3,4,5,6)            180.0            estimate D2E/DX2                !
 ! D22   D(3,4,5,18)             0.0            estimate D2E/DX2                !
 ! D23   D(25,4,5,6)             0.0            estimate D2E/DX2                !
 ! D24   D(25,4,5,18)          180.0            estimate D2E/DX2                !
 ! D25   D(4,5,6,7)            180.0            estimate D2E/DX2                !
 ! D26   D(4,5,6,26)             0.0            estimate D2E/DX2                !
 ! D27   D(18,5,6,7)             0.0            estimate D2E/DX2                !
 ! D28   D(18,5,6,26)          180.0            estimate D2E/DX2                !
 ! D29   D(4,5,18,17)          180.0            estimate D2E/DX2                !
 ! D30   D(4,5,18,19)            0.0            estimate D2E/DX2                !
 ! D31   D(6,5,18,17)            0.0            estimate D2E/DX2                !
 ! D32   D(6,5,18,19)          180.0            estimate D2E/DX2                !
 ! D33   D(5,6,7,8)            180.0            estimate D2E/DX2                !
 ! D34   D(5,6,7,16)             0.0            estimate D2E/DX2                !
 ! D35   D(26,6,7,8)             0.0            estimate D2E/DX2                !
 ! D36   D(26,6,7,16)          180.0            estimate D2E/DX2                !
 ! D37   D(6,7,8,9)            180.0            estimate D2E/DX2                !
 ! D38   D(6,7,8,27)             0.0            estimate D2E/DX2                !
 ! D39   D(16,7,8,9)             0.0            estimate D2E/DX2                !
 ! D40   D(16,7,8,27)          180.0            estimate D2E/DX2                !
 ! D41   D(6,7,16,15)          180.0            estimate D2E/DX2                !
 ! D42   D(6,7,16,17)            0.0            estimate D2E/DX2                !
 ! D43   D(8,7,16,15)            0.0            estimate D2E/DX2                !
 ! D44   D(8,7,16,17)          180.0            estimate D2E/DX2                !
 ! D45   D(7,8,9,10)           180.0            estimate D2E/DX2                !
 ! D46   D(7,8,9,14)             0.0            estimate D2E/DX2                !
 ! D47   D(27,8,9,10)            0.0            estimate D2E/DX2                !
 ! D48   D(27,8,9,14)          180.0            estimate D2E/DX2                !
 ! D49   D(8,9,10,11)          180.0            estimate D2E/DX2                !
 ! D50   D(8,9,10,28)            0.0            estimate D2E/DX2                !
 ! D51   D(14,9,10,11)           0.0            estimate D2E/DX2                !
 ! D52   D(14,9,10,28)         180.0            estimate D2E/DX2                !
 ! D53   D(8,9,14,13)          180.0            estimate D2E/DX2                !
 ! D54   D(8,9,14,15)            0.0            estimate D2E/DX2                !
 ! D55   D(10,9,14,13)           0.0            estimate D2E/DX2                !
 ! D56   D(10,9,14,15)         180.0            estimate D2E/DX2                !
 ! D57   D(9,10,11,12)           0.0            estimate D2E/DX2                !
 ! D58   D(9,10,11,29)         180.0            estimate D2E/DX2                !
 ! D59   D(28,10,11,12)        180.0            estimate D2E/DX2                !
 ! D60   D(28,10,11,29)          0.0            estimate D2E/DX2                !
 ! D61   D(10,11,12,13)          0.0            estimate D2E/DX2                !
 ! D62   D(10,11,12,30)        180.0            estimate D2E/DX2                !
 ! D63   D(29,11,12,13)        180.0            estimate D2E/DX2                !
 ! D64   D(29,11,12,30)          0.0            estimate D2E/DX2                !
 ! D65   D(11,12,13,14)          0.0            estimate D2E/DX2                !
 ! D66   D(11,12,13,31)        180.0            estimate D2E/DX2                !
 ! D67   D(30,12,13,14)        180.0            estimate D2E/DX2                !
 ! D68   D(30,12,13,31)          0.0            estimate D2E/DX2                !
 ! D69   D(12,13,14,9)           0.0            estimate D2E/DX2                !
 ! D70   D(12,13,14,15)        180.0            estimate D2E/DX2                !
 ! D71   D(31,13,14,9)         180.0            estimate D2E/DX2                !
 ! D72   D(31,13,14,15)          0.0            estimate D2E/DX2                !
 ! D73   D(9,14,15,16)           0.0            estimate D2E/DX2                !
 ! D74   D(9,14,15,32)         180.0            estimate D2E/DX2                !
 ! D75   D(13,14,15,16)        180.0            estimate D2E/DX2                !
 ! D76   D(13,14,15,32)          0.0            estimate D2E/DX2                !
 ! D77   D(14,15,16,7)           0.0            estimate D2E/DX2                !
 ! D78   D(14,15,16,17)        180.0            estimate D2E/DX2                !
 ! D79   D(32,15,16,7)         180.0            estimate D2E/DX2                !
 ! D80   D(32,15,16,17)          0.0            estimate D2E/DX2                !
 ! D81   D(7,16,17,18)           0.0            estimate D2E/DX2                !
 ! D82   D(7,16,17,33)         180.0            estimate D2E/DX2                !
 ! D83   D(15,16,17,18)        180.0            estimate D2E/DX2                !
 ! D84   D(15,16,17,33)          0.0            estimate D2E/DX2                !
 ! D85   D(16,17,18,5)           0.0            estimate D2E/DX2                !
 ! D86   D(16,17,18,19)        180.0            estimate D2E/DX2                !
 ! D87   D(33,17,18,5)         180.0            estimate D2E/DX2                !
 ! D88   D(33,17,18,19)          0.0            estimate D2E/DX2                !
 ! D89   D(5,18,19,20)           0.0            estimate D2E/DX2                !
 ! D90   D(5,18,19,34)         180.0            estimate D2E/DX2                !
 ! D91   D(17,18,19,20)        180.0            estimate D2E/DX2                !
 ! D92   D(17,18,19,34)          0.0            estimate D2E/DX2                !
 ! D93   D(18,19,20,3)           0.0            estimate D2E/DX2                !
 ! D94   D(18,19,20,21)        180.0            estimate D2E/DX2                !
 ! D95   D(34,19,20,3)         180.0            estimate D2E/DX2                !
 ! D96   D(34,19,20,21)          0.0            estimate D2E/DX2                !
 ! D97   D(3,20,21,22)           0.0            estimate D2E/DX2                !
 ! D98   D(3,20,21,35)         180.0            estimate D2E/DX2                !
 ! D99   D(19,20,21,22)        180.0            estimate D2E/DX2                !
 ! D100  D(19,20,21,35)          0.0            estimate D2E/DX2                !
 ! D101  D(20,21,22,1)           0.0            estimate D2E/DX2                !
 ! D102  D(20,21,22,36)        180.0            estimate D2E/DX2                !
 ! D103  D(35,21,22,1)         180.0            estimate D2E/DX2                !
 ! D104  D(35,21,22,36)          0.0            estimate D2E/DX2                !
 --------------------------------------------------------------------------------
 Trust Radius=3.00D-01 FncErr=1.00D-07 GrdErr=1.00D-06 EigMax=2.50D+02 EigMin=1.00D-04
 Number of steps in this run=    200 maximum allowed number of steps=    216.
 GradGradGradGradGradGradGradGradGradGradGradGradGradGradGradGradGradGrad

 Leave Link  103 at Thu Jul 21 10:31:03 2022, MaxMem= 13421772800 cpu:               1.5 elap:               0.1
 (Enter /share/apps/gaussian/G16B01/AVX2/g16/l202.exe)
                          Input orientation:                          
 ---------------------------------------------------------------------
 Center     Atomic      Atomic             Coordinates (Angstroms)
 Number     Number       Type             X           Y           Z
 ---------------------------------------------------------------------
      1          6           0       -6.121805   -0.717151   -0.000000
      2          6           0       -4.944229   -1.411305   -0.000000
      3          6           0       -3.680310   -0.727644   -0.000000
      4          6           0       -2.468805   -1.408492   -0.000000
      5          6           0       -1.227032   -0.728461   -0.000000
      6          6           0       -0.000000   -1.409085   -0.000000
      7          6           0        1.227032   -0.728461   -0.000000
      8          6           0        2.468805   -1.408492   -0.000000
      9          6           0        3.680310   -0.727644   -0.000000
     10          6           0        4.944229   -1.411305   -0.000000
     11          6           0        6.121805   -0.717151   -0.000000
     12          6           0        6.121805    0.717151   -0.000000
     13          6           0        4.944229    1.411305   -0.000000
     14          6           0        3.680310    0.727644   -0.000000
     15          6           0        2.468805    1.408492   -0.000000
     16          6           0        1.227032    0.728461   -0.000000
     17          6           0        0.000000    1.409085   -0.000000
     18          6           0       -1.227032    0.728461   -0.000000
     19          6           0       -2.468805    1.408492   -0.000000
     20          6           0       -3.680310    0.727644   -0.000000
     21          6           0       -4.944229    1.411305   -0.000000
     22          6           0       -6.121805    0.717151   -0.000000
     23          1           0       -7.069292   -1.249069   -0.000000
     24          1           0       -4.943074   -2.498861   -0.000000
     25          1           0       -2.469055   -2.496837   -0.000000
     26          1           0       -0.000000   -2.497324   -0.000000
     27          1           0        2.469055   -2.496837   -0.000000
     28          1           0        4.943074   -2.498861   -0.000000
     29          1           0        7.069292   -1.249069   -0.000000
     30          1           0        7.069292    1.249069   -0.000000
     31          1           0        4.943074    2.498861   -0.000000
     32          1           0        2.469055    2.496837   -0.000000
     33          1           0        0.000000    2.497324   -0.000000
     34          1           0       -2.469055    2.496837   -0.000000
     35          1           0       -4.943074    2.498861   -0.000000
     36          1           0       -7.069292    1.249069   -0.000000
 ---------------------------------------------------------------------
                    Distance matrix (angstroms):
                    1          2          3          4          5
     1  C    0.000000
     2  C    1.366944   0.000000
     3  C    2.441518   1.436970   0.000000
     4  C    3.717844   2.475425   1.389711   0.000000
     5  C    4.894787   3.779395   2.453278   1.415784   0.000000
     6  C    6.160785   4.944229   3.742865   2.468805   1.403159
     7  C    7.348846   6.208923   4.907342   3.757878   2.454063
     8  C    8.618384   7.413034   6.186693   4.937610   3.757878
     9  C    9.802121   8.651593   7.360620   6.186693   4.907342
    10  C   11.087784   9.888457   8.651593   7.413034   6.208923
    11  C   12.243611  11.087784   9.802121   8.618384   7.348846
    12  C   12.327337  11.268870   9.908022   8.849686   7.489673
    13  C   11.268870  10.283419   8.885818   7.931224   6.531696
    14  C    9.908022   8.885818   7.503105   6.509585   5.118813
    15  C    8.849686   7.931224   6.509585   5.684663   4.269166
    16  C    7.489673   6.531696   5.118813   4.269166   2.853953
    17  C    6.480539   5.692099   4.255619   3.746163   2.464692
    18  C    5.103783   4.289073   2.852861   2.471552   1.456921
    19  C    4.226437   3.752196   2.455773   2.816984   2.471552
    20  C    2.836959   2.484470   1.455288   2.455773   2.852861
    21  C    2.432491   2.822609   2.484470   3.752196   4.289073
    22  C    1.434303   2.432491   2.836959   4.226437   5.103783
    23  H    1.086585   2.131247   3.428860   4.603248   5.865410
    24  H    2.136328   1.087557   2.175265   2.703869   4.116222
    25  H    4.063233   2.702751   2.144104   1.088346   2.160967
    26  H    6.375383   5.062098   4.083680   2.698250   2.152785
    27  H    8.773265   7.492340   6.398808   5.056378   4.097342
    28  H   11.207410   9.946935   8.803406   7.491652   6.419074
    29  H   13.201817  12.014616  10.762240   9.539429   8.312642
    30  H   13.336831  12.304563  10.929837   9.901410   8.528752
    31  H   11.522772  10.632410   9.207229   8.378744   6.963175
    32  H    9.172383   8.380355   6.943484   6.295559   4.905467
    33  H    6.914431   6.302600   4.893373   4.620648   3.451274
    34  H    4.865419   4.626020   3.444477   3.905329   3.456179
    35  H    3.425221   3.910165   3.464809   4.624868   4.921846
    36  H    2.182602   3.404920   3.923340   5.312919   6.167871
                    6          7          8          9         10
     6  C    0.000000
     7  C    1.403159   0.000000
     8  C    2.468805   1.415784   0.000000
     9  C    3.742865   2.453278   1.389711   0.000000
    10  C    4.944229   3.779395   2.475425   1.436970   0.000000
    11  C    6.160785   4.894787   3.717844   2.441518   1.366944
    12  C    6.480539   5.103783   4.226437   2.836959   2.432491
    13  C    5.692099   4.289073   3.752196   2.484470   2.822609
    14  C    4.255619   2.852861   2.455773   1.455288   2.484470
    15  C    3.746163   2.471552   2.816984   2.455773   3.752196
    16  C    2.464692   1.456921   2.471552   2.852861   4.289073
    17  C    2.818169   2.464692   3.746163   4.255619   5.692099
    18  C    2.464692   2.853953   4.269166   5.118813   6.531696
    19  C    3.746163   4.269166   5.684663   6.509585   7.931224
    20  C    4.255619   5.118813   6.509585   7.503105   8.885818
    21  C    5.692099   6.531696   7.931224   8.885818  10.283419
    22  C    6.480539   7.489673   8.849686   9.908022  11.268870
    23  H    7.071102   8.312642   9.539429  10.762240  12.014616
    24  H    5.061777   6.419074   7.491652   8.803406   9.946935
    25  H    2.698044   4.097342   5.056378   6.398808   7.492340
    26  H    1.088239   2.152785   2.698250   4.083680   5.062098
    27  H    2.698044   2.160967   1.088346   2.144104   2.702751
    28  H    5.061777   4.116222   2.703869   2.175265   1.087557
    29  H    7.071102   5.865410   4.603248   3.428860   2.131247
    30  H    7.552527   6.167871   5.312919   3.923340   3.404920
    31  H    6.301271   4.921846   4.624868   3.464809   3.910165
    32  H    4.620873   3.456179   3.905329   3.444477   4.626020
    33  H    3.906408   3.451274   4.620648   4.893373   6.302600
    34  H    4.620873   4.905467   6.295559   6.943484   8.380355
    35  H    6.301271   6.963175   8.378744   9.207229  10.632410
    36  H    7.552527   8.528752   9.901410  10.929837  12.304563
                   11         12         13         14         15
    11  C    0.000000
    12  C    1.434303   0.000000
    13  C    2.432491   1.366944   0.000000
    14  C    2.836959   2.441518   1.436970   0.000000
    15  C    4.226437   3.717844   2.475425   1.389711   0.000000
    16  C    5.103783   4.894787   3.779395   2.453278   1.415784
    17  C    6.480539   6.160785   4.944229   3.742865   2.468805
    18  C    7.489673   7.348846   6.208923   4.907342   3.757878
    19  C    8.849686   8.618384   7.413034   6.186693   4.937610
    20  C    9.908022   9.802121   8.651593   7.360620   6.186693
    21  C   11.268870  11.087784   9.888457   8.651593   7.413034
    22  C   12.327337  12.243611  11.087784   9.802121   8.618384
    23  H   13.201817  13.336831  12.304563  10.929837   9.901410
    24  H   11.207410  11.522772  10.632410   9.207229   8.378744
    25  H    8.773265   9.172383   8.380355   6.943484   6.295559
    26  H    6.375383   6.914431   6.302600   4.893373   4.620648
    27  H    4.063233   4.865419   4.626020   3.444477   3.905329
    28  H    2.136328   3.425221   3.910165   3.464809   4.624868
    29  H    1.086585   2.182602   3.404920   3.923340   5.312919
    30  H    2.182602   1.086585   2.131247   3.428860   4.603248
    31  H    3.425221   2.136328   1.087557   2.175265   2.703869
    32  H    4.865419   4.063233   2.702751   2.144104   1.088346
    33  H    6.914431   6.375383   5.062098   4.083680   2.698250
    34  H    9.172383   8.773265   7.492340   6.398808   5.056378
    35  H   11.522772  11.207410   9.946935   8.803406   7.491652
    36  H   13.336831  13.201817  12.014616  10.762240   9.539429
                   16         17         18         19         20
    16  C    0.000000
    17  C    1.403159   0.000000
    18  C    2.454063   1.403159   0.000000
    19  C    3.757878   2.468805   1.415784   0.000000
    20  C    4.907342   3.742865   2.453278   1.389711   0.000000
    21  C    6.208923   4.944229   3.779395   2.475425   1.436970
    22  C    7.348846   6.160785   4.894787   3.717844   2.441518
    23  H    8.528752   7.552527   6.167871   5.312919   3.923340
    24  H    6.963175   6.301271   4.921846   4.624868   3.464809
    25  H    4.905467   4.620873   3.456179   3.905329   3.444477
    26  H    3.451274   3.906408   3.451274   4.620648   4.893373
    27  H    3.456179   4.620873   4.905467   6.295559   6.943484
    28  H    4.921846   6.301271   6.963175   8.378744   9.207229
    29  H    6.167871   7.552527   8.528752   9.901410  10.929837
    30  H    5.865410   7.071102   8.312642   9.539429  10.762240
    31  H    4.116222   5.061777   6.419074   7.491652   8.803406
    32  H    2.160967   2.698044   4.097342   5.056378   6.398808
    33  H    2.152785   1.088239   2.152785   2.698250   4.083680
    34  H    4.097342   2.698044   2.160967   1.088346   2.144104
    35  H    6.419074   5.061777   4.116222   2.703869   2.175265
    36  H    8.312642   7.071102   5.865410   4.603248   3.428860
                   21         22         23         24         25
    21  C    0.000000
    22  C    1.366944   0.000000
    23  H    3.404920   2.182602   0.000000
    24  H    3.910165   3.425221   2.466330   0.000000
    25  H    4.626020   4.865419   4.766456   2.474019   0.000000
    26  H    6.302600   6.914431   7.178651   4.943074   2.469055
    27  H    8.380355   9.172383   9.619615   7.412129   4.938111
    28  H   10.632410  11.522772  12.077206   9.886147   7.412129
    29  H   12.304563  13.336831  14.138583  12.077206   9.619615
    30  H   12.014616  13.201817  14.357585  12.583477  10.247531
    31  H    9.946935  11.207410  12.583477  11.077595   8.938493
    32  H    7.492340   8.773265  10.247531   8.938493   7.022943
    33  H    5.062098   6.375383   8.000646   7.028217   5.571165
    34  H    2.702751   4.063233   5.932452   5.574743   4.993675
    35  H    1.087557   2.136328   4.309035   4.997721   5.574743
    36  H    2.131247   1.086585   2.498138   4.309035   5.932452
                   26         27         28         29         30
    26  H    0.000000
    27  H    2.469055   0.000000
    28  H    4.943074   2.474019   0.000000
    29  H    7.178651   4.766456   2.466330   0.000000
    30  H    8.000646   5.932452   4.309035   2.498138   0.000000
    31  H    7.028217   5.574743   4.997721   4.309035   2.466330
    32  H    5.571165   4.993675   5.574743   5.932452   4.766456
    33  H    4.994647   5.571165   7.028217   8.000646   7.178651
    34  H    5.571165   7.022943   8.938493  10.247531   9.619615
    35  H    7.028217   8.938493  11.077595  12.583477  12.077206
    36  H    8.000646  10.247531  12.583477  14.357585  14.138583
                   31         32         33         34         35
    31  H    0.000000
    32  H    2.474019   0.000000
    33  H    4.943074   2.469055   0.000000
    34  H    7.412129   4.938111   2.469055   0.000000
    35  H    9.886147   7.412129   4.943074   2.474019   0.000000
    36  H   12.077206   9.619615   7.178651   4.766456   2.466330
                   36
    36  H    0.000000
 Symmetry turned off by external request.
 Stoichiometry    C22H14
 Framework group  D2H[C2"(HC.CH),SG(C20H12)]
 Deg. of freedom    18
 Full point group                 D2H     NOp   8
 Rotational constants (GHZ):           1.3187693           0.1172093           0.1076423
 Leave Link  202 at Thu Jul 21 10:31:03 2022, MaxMem= 13421772800 cpu:               0.8 elap:               0.0
 (Enter /share/apps/gaussian/G16B01/AVX2/g16/l301.exe)
 General basis read from cards:  (5D, 7F)
 Centers:      23     24     25     26     27     28     29     30     31     32
 Centers:      33     34     35     36      1      2      3      4      5      6
 Centers:       7      8      9     10     11     12     13     14     15     16
 Centers:      17     18     19     20     21     22
 6-31+G(d)
 ****
 Ernie: Thresh=  0.10000D-02 Tol=  0.10000D-05 Strict=F.
   424 basis functions,   760 primitive gaussians,   446 cartesian basis functions
    73 alpha electrons       73 beta electrons
       nuclear repulsion energy      1491.1045216602 Hartrees.
 IExCor= 3102 DFT=T Ex+Corr=X3LYP ExCW=0 ScaHFX=  0.218000
 ScaDFX=  0.782000  0.709000  1.000000  0.871000 ScalE2=  1.000000  1.000000
 IRadAn=      5 IRanWt=     -1 IRanGd=            0 ICorTp=0 IEmpDi=  4
 NAtoms=   36 NActive=   36 NUniq=   36 SFac= 1.00D+00 NAtFMM=   60 NAOKFM=F Big=F
 Integral buffers will be    131072 words long.
 Raffenetti 2 integral format.
 Two-electron integral symmetry is turned off.
 Leave Link  301 at Thu Jul 21 10:31:04 2022, MaxMem= 13421772800 cpu:               3.0 elap:               0.1
 (Enter /share/apps/gaussian/G16B01/AVX2/g16/l302.exe)
 NPDir=0 NMtPBC=     1 NCelOv=     1 NCel=       1 NClECP=     1 NCelD=      1
         NCelK=      1 NCelE2=     1 NClLst=     1 CellRange=     0.0.
 One-electron integrals computed using PRISM.
 NBasis=   424 RedAO= T EigKep=  1.31D-06  NBF=   424
 NBsUse=   412 1.00D-06 EigRej=  8.66D-07 NBFU=   412
 Precomputing XC quadrature grid using
 IXCGrd= 4 IRadAn=           5 IRanWt=          -1 IRanGd=           0 AccXCQ= 1.00D-12.
 Generated NRdTot=       0 NPtTot=           0 NUsed=           0 NTot=          32
 NSgBfM=   439   439   439   439   439 MxSgAt=    36 MxSgA2=    36.
 Leave Link  302 at Thu Jul 21 10:31:04 2022, MaxMem= 13421772800 cpu:              16.6 elap:               0.4
 (Enter /share/apps/gaussian/G16B01/AVX2/g16/l303.exe)
 DipDrv:  MaxL=1.
 Leave Link  303 at Thu Jul 21 10:31:04 2022, MaxMem= 13421772800 cpu:               3.0 elap:               0.1
 (Enter /share/apps/gaussian/G16B01/AVX2/g16/l401.exe)
 Initial guess from the checkpoint file:  "/scratch/scr/ds/xc05n04/202207211031.74757/pen_00.chk"
 B after Tr=     0.000000    0.000000    0.000000
         Rot=    1.000000    0.000000    0.000000    0.000000 Ang=   0.00 deg.
 Guess basis will be translated and rotated to current coordinates.
 JPrj=2 DoOrth=T DoCkMO=T.
 Leave Link  401 at Thu Jul 21 10:31:04 2022, MaxMem= 13421772800 cpu:              12.3 elap:               0.3
 (Enter /share/apps/gaussian/G16B01/AVX2/g16/l502.exe)
 Two-electron integral symmetry not used.
 Closed shell SCF:
 Using DIIS extrapolation, IDIIS=  1040.
 NGot= 13421772800 LenX= 13421350120 LenY= 13421150758
 Requested convergence on RMS density matrix=1.00D-08 within 128 cycles.
 Requested convergence on MAX density matrix=1.00D-06.
 Requested convergence on             energy=1.00D-06.
 No special actions if energy rises.

 Cycle   1  Pass 1  IDiag  1:
 FoFJK:  IHMeth= 1 ICntrl=       0 DoSepK=F KAlg= 0 I1Cent=           0 FoldK=F
 IRaf= 790000000 NMat=       1 IRICut=       1 DoRegI=T DoRafI=F ISym2E= 0 IDoP0=0 IntGTp=1.
 FoFCou: FMM=F IPFlag=           0 FMFlag=      100000 FMFlg1=           0
         NFxFlg=           0 DoJE=F BraDBF=F KetDBF=F FulRan=T
         wScrn=  0.000000 ICntrl=         0 IOpCl=  0 I1Cent=           0 NGrid=           0
         NMat0=    1 NMatS0=      1 NMatT0=    0 NMatD0=    1 NMtDS0=    0 NMtDT0=    0
 Symmetry not used in FoFCou.
 E= -846.402966896547    
 DIIS: error= 1.40D-09 at cycle   1 NSaved=   1.
 NSaved= 1 IEnMin= 1 EnMin= -846.402966896547     IErMin= 1 ErrMin= 1.40D-09
 ErrMax= 1.40D-09  0.00D+00 EMaxC= 1.00D-01 BMatC= 7.90D-16 BMatP= 7.90D-16
 IDIUse=1 WtCom= 1.00D+00 WtEn= 0.00D+00
 Coeff-Com:  0.100D+01
 Coeff:      0.100D+01
 Gap=     0.084 Goal=   None    Shift=    0.000
 RMSDP=1.16D-09 MaxDP=4.58D-08              OVMax= 2.23D-08

 SCF Done:  E(RX3LYP) =  -846.402966897     A.U. after    1 cycles
            NFock=  1  Conv=0.12D-08     -V/T= 2.0062
 KE= 8.411988954930D+02 PE=-4.943858747928D+03 EE= 1.765152363878D+03
 Leave Link  502 at Thu Jul 21 10:31:06 2022, MaxMem= 13421772800 cpu:              84.5 elap:               1.8
 (Enter /share/apps/gaussian/G16B01/AVX2/g16/l508.exe)
 QCSCF skips out because SCF is already converged.
 Leave Link  508 at Thu Jul 21 10:31:06 2022, MaxMem= 13421772800 cpu:               1.6 elap:               0.1
 (Enter /share/apps/gaussian/G16B01/AVX2/g16/l601.exe)
 Copying SCF densities to generalized density rwf, IOpCl= 0 IROHF=0.

 **********************************************************************

            Population analysis using the SCF Density.

 **********************************************************************

 Alpha  occ. eigenvalues --  -10.22769 -10.22767 -10.22739 -10.22736 -10.22691
 Alpha  occ. eigenvalues --  -10.22691 -10.22660 -10.22660 -10.21791 -10.21788
 Alpha  occ. eigenvalues --  -10.21781 -10.21781 -10.21764 -10.21764 -10.21761
 Alpha  occ. eigenvalues --  -10.21761 -10.21759 -10.21758 -10.21714 -10.21714
 Alpha  occ. eigenvalues --  -10.21699 -10.21699  -0.90010  -0.88522  -0.86189
 Alpha  occ. eigenvalues --   -0.83039  -0.80467  -0.79132  -0.78954  -0.76615
 Alpha  occ. eigenvalues --   -0.74917  -0.73505  -0.69778  -0.67931  -0.63199
 Alpha  occ. eigenvalues --   -0.62947  -0.61616  -0.60491  -0.59878  -0.58227
 Alpha  occ. eigenvalues --   -0.52994  -0.52899  -0.52822  -0.50033  -0.48819
 Alpha  occ. eigenvalues --   -0.47694  -0.46599  -0.46098  -0.45781  -0.44219
 Alpha  occ. eigenvalues --   -0.43552  -0.42986  -0.42231  -0.41962  -0.41642
 Alpha  occ. eigenvalues --   -0.40980  -0.40763  -0.39810  -0.38587  -0.36929
 Alpha  occ. eigenvalues --   -0.36672  -0.35944  -0.34379  -0.34202  -0.33439
 Alpha  occ. eigenvalues --   -0.33093  -0.31811  -0.29841  -0.28547  -0.26767
 Alpha  occ. eigenvalues --   -0.24534  -0.22688  -0.17916
 Alpha virt. eigenvalues --   -0.09546  -0.04312  -0.02550  -0.00258   0.00520
 Alpha virt. eigenvalues --    0.00522   0.00675   0.01166   0.01374   0.01690
 Alpha virt. eigenvalues --    0.01852   0.02124   0.03164   0.03322   0.04621
 Alpha virt. eigenvalues --    0.04712   0.04782   0.05264   0.05913   0.06323
 Alpha virt. eigenvalues --    0.06414   0.06555   0.06723   0.06737   0.08054
 Alpha virt. eigenvalues --    0.08251   0.08282   0.09228   0.09527   0.09612
 Alpha virt. eigenvalues --    0.10645   0.11156   0.11502   0.12538   0.12679
 Alpha virt. eigenvalues --    0.12690   0.12707   0.12732   0.12865   0.14212
 Alpha virt. eigenvalues --    0.14377   0.14827   0.15250   0.15297   0.15935
 Alpha virt. eigenvalues --    0.16095   0.17243   0.17263   0.17297   0.17748
 Alpha virt. eigenvalues --    0.18122   0.18413   0.18579   0.19030   0.19148
 Alpha virt. eigenvalues --    0.19300   0.19708   0.19753   0.20679   0.20901
 Alpha virt. eigenvalues --    0.21001   0.21104   0.21402   0.21508   0.21911
 Alpha virt. eigenvalues --    0.21940   0.22366   0.23008   0.23063   0.23120
 Alpha virt. eigenvalues --    0.23684   0.24027   0.24058   0.24194   0.24523
 Alpha virt. eigenvalues --    0.25508   0.25675   0.25831   0.25998   0.26422
 Alpha virt. eigenvalues --    0.27037   0.27042   0.27342   0.27359   0.27605
 Alpha virt. eigenvalues --    0.28052   0.28202   0.28627   0.28877   0.29699
 Alpha virt. eigenvalues --    0.29821   0.30613   0.30718   0.31187   0.31741
 Alpha virt. eigenvalues --    0.32257   0.32471   0.33832   0.34064   0.34240
 Alpha virt. eigenvalues --    0.34590   0.35013   0.35896   0.36729   0.37204
 Alpha virt. eigenvalues --    0.38587   0.38756   0.39022   0.42175   0.42250
 Alpha virt. eigenvalues --    0.44088   0.44662   0.45793   0.46409   0.48661
 Alpha virt. eigenvalues --    0.49673   0.50956   0.51340   0.51746   0.52627
 Alpha virt. eigenvalues --    0.53032   0.57444   0.57826   0.59493   0.62335
 Alpha virt. eigenvalues --    0.64156   0.65592   0.66026   0.66055   0.66583
 Alpha virt. eigenvalues --    0.67862   0.68099   0.69542   0.69688   0.70542
 Alpha virt. eigenvalues --    0.70600   0.70894   0.72810   0.72898   0.72915
 Alpha virt. eigenvalues --    0.73318   0.73395   0.73635   0.74224   0.74360
 Alpha virt. eigenvalues --    0.74468   0.74729   0.76661   0.77427   0.77478
 Alpha virt. eigenvalues --    0.77911   0.78119   0.78274   0.78647   0.78784
 Alpha virt. eigenvalues --    0.79020   0.79126   0.79138   0.80931   0.81463
 Alpha virt. eigenvalues --    0.81496   0.82368   0.84358   0.84655   0.86627
 Alpha virt. eigenvalues --    0.88196   0.88381   0.88545   0.90194   0.90208
 Alpha virt. eigenvalues --    0.90371   0.91541   0.92451   0.92962   0.93003
 Alpha virt. eigenvalues --    0.94271   0.95451   0.96212   0.96394   0.98001
 Alpha virt. eigenvalues --    1.01704   1.01859   1.02084   1.02113   1.08195
 Alpha virt. eigenvalues --    1.08705   1.09902   1.10034   1.11933   1.13687
 Alpha virt. eigenvalues --    1.14163   1.14262   1.14812   1.16245   1.17516
 Alpha virt. eigenvalues --    1.18346   1.19485   1.19570   1.20093   1.20553
 Alpha virt. eigenvalues --    1.21169   1.22512   1.22708   1.23669   1.23673
 Alpha virt. eigenvalues --    1.24331   1.24955   1.25093   1.25884   1.27547
 Alpha virt. eigenvalues --    1.28707   1.29083   1.29268   1.31955   1.35831
 Alpha virt. eigenvalues --    1.36119   1.37681   1.38106   1.39599   1.40356
 Alpha virt. eigenvalues --    1.41995   1.42279   1.42800   1.43733   1.44040
 Alpha virt. eigenvalues --    1.44449   1.45279   1.46992   1.47404   1.48477
 Alpha virt. eigenvalues --    1.49936   1.49937   1.50001   1.51658   1.53046
 Alpha virt. eigenvalues --    1.54113   1.55837   1.57076   1.59773   1.60968
 Alpha virt. eigenvalues --    1.62115   1.62354   1.74259   1.77381   1.80474
 Alpha virt. eigenvalues --    1.80660   1.81842   1.82595   1.82749   1.85554
 Alpha virt. eigenvalues --    1.88925   1.90183   1.90272   1.91532   1.91606
 Alpha virt. eigenvalues --    1.92984   1.93550   1.94023   1.94947   1.95261
 Alpha virt. eigenvalues --    1.95672   1.95803   1.95879   1.96671   1.97127
 Alpha virt. eigenvalues --    1.97152   1.99634   2.00158   2.00679   2.00966
 Alpha virt. eigenvalues --    2.03980   2.04636   2.04952   2.07811   2.09974
 Alpha virt. eigenvalues --    2.12518   2.15102   2.18693   2.19030   2.19471
 Alpha virt. eigenvalues --    2.19605   2.20045   2.21654   2.23482   2.25243
 Alpha virt. eigenvalues --    2.25647   2.26133   2.26338   2.31252   2.32457
 Alpha virt. eigenvalues --    2.33674   2.34467   2.35116   2.37790   2.37936
 Alpha virt. eigenvalues --    2.39007   2.43453   2.43595   2.43657   2.44129
 Alpha virt. eigenvalues --    2.44741   2.46810   2.49781   2.55097   2.55336
 Alpha virt. eigenvalues --    2.57292   2.60808   2.64717   2.66446   2.66639
 Alpha virt. eigenvalues --    2.67007   2.67970   2.70685   2.71067   2.72987
 Alpha virt. eigenvalues --    2.73925   2.75276   2.76412   2.79886   2.84290
 Alpha virt. eigenvalues --    2.84903   2.85115   2.89031   2.89356   2.90428
 Alpha virt. eigenvalues --    2.90784   2.90877   2.92680   2.98041   2.98090
 Alpha virt. eigenvalues --    3.10085   3.10363   3.12013   3.16427   3.25172
 Alpha virt. eigenvalues --    3.35758   3.44148   3.49851   3.50226
          Condensed to atoms (all electrons):
               1          2          3          4          5          6
     1  C    6.083598  -0.150282   0.070983  -0.385325  -0.156863   0.029640
     2  C   -0.150282   9.408105  -2.598123  -0.333815   0.284762  -0.493157
     3  C    0.070983  -2.598123   9.462702   0.671268  -0.614341   0.375507
     4  C   -0.385325  -0.333815   0.671268   6.906894   0.301514  -1.013238
     5  C   -0.156863   0.284762  -0.614341   0.301514   9.611525   0.099690
     6  C    0.029640  -0.493157   0.375507  -1.013238   0.099690   7.995299
     7  C    0.041767  -0.193173   0.191133   0.326065  -2.992923   0.099690
     8  C    0.000617  -0.014269   0.021658   0.071944   0.326065  -1.013238
     9  C   -0.000577  -0.008188  -0.027100   0.021658   0.191133   0.375507
    10  C    0.000082  -0.002893  -0.008188  -0.014269  -0.193173  -0.493157
    11  C    0.000003   0.000082  -0.000577   0.000617   0.041767   0.029640
    12  C    0.000003   0.000137   0.001061   0.005519   0.030673  -0.000986
    13  C    0.000137  -0.000127   0.003830   0.026912  -0.215011  -0.255052
    14  C    0.001061   0.003830   0.027370   0.075052  -0.173286  -0.057788
    15  C    0.005519   0.026912   0.075052   0.160855  -0.035860  -0.332371
    16  C    0.030673  -0.215011  -0.173286  -0.035860  -2.115165   0.103833
    17  C   -0.000986  -0.255052  -0.057788  -0.332371   0.103833   0.961992
    18  C   -0.148159   0.039165  -0.401139  -0.181994   2.265539   0.103833
    19  C   -0.056574   0.306521  -0.682798  -0.090973  -0.181994  -0.332371
    20  C    0.620272  -0.857500  -0.245918  -0.682798  -0.401139  -0.057788
    21  C   -0.926543   2.023492  -0.857500   0.306521   0.039165  -0.255052
    22  C    0.940774  -0.926543   0.620272  -0.056574  -0.148159  -0.000986
    23  H    0.307231   0.014960  -0.011441  -0.004900  -0.003144   0.000251
    24  H    0.010868   0.301920  -0.091801  -0.008224  -0.012972   0.004815
    25  H   -0.006657  -0.016339  -0.053453   0.332274  -0.051338   0.010496
    26  H    0.000524   0.002966   0.003586   0.018137  -0.063142   0.281735
    27  H   -0.000003  -0.000022  -0.000089  -0.000364  -0.008849   0.010496
    28  H   -0.000000  -0.000000  -0.000009  -0.000038   0.000225   0.004815
    29  H   -0.000000  -0.000000  -0.000000   0.000002  -0.000015   0.000251
    30  H    0.000000   0.000000   0.000000  -0.000000  -0.000009  -0.000121
    31  H    0.000000   0.000000   0.000001   0.000003  -0.000015   0.000371
    32  H   -0.000001  -0.000008  -0.000178  -0.000637  -0.000874   0.004494
    33  H    0.000034   0.000101   0.002531   0.007760   0.033110  -0.018669
    34  H    0.001549   0.007445   0.033660  -0.012147   0.034525   0.004494
    35  H    0.011901  -0.029218   0.079885   0.010828   0.002357   0.000371
    36  H   -0.034527   0.013610   0.015671   0.000847   0.001012  -0.000121
               7          8          9         10         11         12
     1  C    0.041767   0.000617  -0.000577   0.000082   0.000003   0.000003
     2  C   -0.193173  -0.014269  -0.008188  -0.002893   0.000082   0.000137
     3  C    0.191133   0.021658  -0.027100  -0.008188  -0.000577   0.001061
     4  C    0.326065   0.071944   0.021658  -0.014269   0.000617   0.005519
     5  C   -2.992923   0.326065   0.191133  -0.193173   0.041767   0.030673
     6  C    0.099690  -1.013238   0.375507  -0.493157   0.029640  -0.000986
     7  C    9.611525   0.301514  -0.614341   0.284762  -0.156863  -0.148159
     8  C    0.301514   6.906894   0.671268  -0.333815  -0.385325  -0.056574
     9  C   -0.614341   0.671268   9.462702  -2.598123   0.070983   0.620272
    10  C    0.284762  -0.333815  -2.598123   9.408105  -0.150282  -0.926543
    11  C   -0.156863  -0.385325   0.070983  -0.150282   6.083598   0.940774
    12  C   -0.148159  -0.056574   0.620272  -0.926543   0.940774   6.083598
    13  C    0.039165   0.306521  -0.857500   2.023492  -0.926543  -0.150282
    14  C   -0.401139  -0.682798  -0.245918  -0.857500   0.620272   0.070983
    15  C   -0.181994  -0.090973  -0.682798   0.306521  -0.056574  -0.385325
    16  C    2.265539  -0.181994  -0.401139   0.039165  -0.148159  -0.156863
    17  C    0.103833  -0.332371  -0.057788  -0.255052  -0.000986   0.029640
    18  C   -2.115165  -0.035860  -0.173286  -0.215011   0.030673   0.041767
    19  C   -0.035860   0.160855   0.075052   0.026912   0.005519   0.000617
    20  C   -0.173286   0.075052   0.027370   0.003830   0.001061  -0.000577
    21  C   -0.215011   0.026912   0.003830  -0.000127   0.000137   0.000082
    22  C    0.030673   0.005519   0.001061   0.000137   0.000003   0.000003
    23  H   -0.000015   0.000002  -0.000000  -0.000000  -0.000000   0.000000
    24  H    0.000225  -0.000038  -0.000009  -0.000000  -0.000000   0.000000
    25  H   -0.008849  -0.000364  -0.000089  -0.000022  -0.000003  -0.000001
    26  H   -0.063142   0.018137   0.003586   0.002966   0.000524   0.000034
    27  H   -0.051338   0.332274  -0.053453  -0.016339  -0.006657   0.001549
    28  H   -0.012972  -0.008224  -0.091801   0.301920   0.010868   0.011901
    29  H   -0.003144  -0.004900  -0.011441   0.014960   0.307231  -0.034527
    30  H    0.001012   0.000847   0.015671   0.013610  -0.034527   0.307231
    31  H    0.002357   0.010828   0.079885  -0.029218   0.011901   0.010868
    32  H    0.034525  -0.012147   0.033660   0.007445   0.001549  -0.006657
    33  H    0.033110   0.007760   0.002531   0.000101   0.000034   0.000524
    34  H   -0.000874  -0.000637  -0.000178  -0.000008  -0.000001  -0.000003
    35  H   -0.000015   0.000003   0.000001   0.000000   0.000000  -0.000000
    36  H   -0.000009  -0.000000   0.000000   0.000000   0.000000  -0.000000
              13         14         15         16         17         18
     1  C    0.000137   0.001061   0.005519   0.030673  -0.000986  -0.148159
     2  C   -0.000127   0.003830   0.026912  -0.215011  -0.255052   0.039165
     3  C    0.003830   0.027370   0.075052  -0.173286  -0.057788  -0.401139
     4  C    0.026912   0.075052   0.160855  -0.035860  -0.332371  -0.181994
     5  C   -0.215011  -0.173286  -0.035860  -2.115165   0.103833   2.265539
     6  C   -0.255052  -0.057788  -0.332371   0.103833   0.961992   0.103833
     7  C    0.039165  -0.401139  -0.181994   2.265539   0.103833  -2.115165
     8  C    0.306521  -0.682798  -0.090973  -0.181994  -0.332371  -0.035860
     9  C   -0.857500  -0.245918  -0.682798  -0.401139  -0.057788  -0.173286
    10  C    2.023492  -0.857500   0.306521   0.039165  -0.255052  -0.215011
    11  C   -0.926543   0.620272  -0.056574  -0.148159  -0.000986   0.030673
    12  C   -0.150282   0.070983  -0.385325  -0.156863   0.029640   0.041767
    13  C    9.408105  -2.598123  -0.333815   0.284762  -0.493157  -0.193173
    14  C   -2.598123   9.462702   0.671268  -0.614341   0.375507   0.191133
    15  C   -0.333815   0.671268   6.906894   0.301514  -1.013238   0.326065
    16  C    0.284762  -0.614341   0.301514   9.611525   0.099690  -2.992923
    17  C   -0.493157   0.375507  -1.013238   0.099690   7.995299   0.099690
    18  C   -0.193173   0.191133   0.326065  -2.992923   0.099690   9.611525
    19  C   -0.014269   0.021658   0.071944   0.326065  -1.013238   0.301514
    20  C   -0.008188  -0.027100   0.021658   0.191133   0.375507  -0.614341
    21  C   -0.002893  -0.008188  -0.014269  -0.193173  -0.493157   0.284762
    22  C    0.000082  -0.000577   0.000617   0.041767   0.029640  -0.156863
    23  H    0.000000   0.000000  -0.000000  -0.000009  -0.000121   0.001012
    24  H    0.000000   0.000001   0.000003  -0.000015   0.000371   0.002357
    25  H   -0.000008  -0.000178  -0.000637  -0.000874   0.004494   0.034525
    26  H    0.000101   0.002531   0.007760   0.033110  -0.018669   0.033110
    27  H    0.007445   0.033660  -0.012147   0.034525   0.004494  -0.000874
    28  H   -0.029218   0.079885   0.010828   0.002357   0.000371  -0.000015
    29  H    0.013610   0.015671   0.000847   0.001012  -0.000121  -0.000009
    30  H    0.014960  -0.011441  -0.004900  -0.003144   0.000251  -0.000015
    31  H    0.301920  -0.091801  -0.008224  -0.012972   0.004815   0.000225
    32  H   -0.016339  -0.053453   0.332274  -0.051338   0.010496  -0.008849
    33  H    0.002966   0.003586   0.018137  -0.063142   0.281735  -0.063142
    34  H   -0.000022  -0.000089  -0.000364  -0.008849   0.010496  -0.051338
    35  H   -0.000000  -0.000009  -0.000038   0.000225   0.004815  -0.012972
    36  H   -0.000000  -0.000000   0.000002  -0.000015   0.000251  -0.003144
              19         20         21         22         23         24
     1  C   -0.056574   0.620272  -0.926543   0.940774   0.307231   0.010868
     2  C    0.306521  -0.857500   2.023492  -0.926543   0.014960   0.301920
     3  C   -0.682798  -0.245918  -0.857500   0.620272  -0.011441  -0.091801
     4  C   -0.090973  -0.682798   0.306521  -0.056574  -0.004900  -0.008224
     5  C   -0.181994  -0.401139   0.039165  -0.148159  -0.003144  -0.012972
     6  C   -0.332371  -0.057788  -0.255052  -0.000986   0.000251   0.004815
     7  C   -0.035860  -0.173286  -0.215011   0.030673  -0.000015   0.000225
     8  C    0.160855   0.075052   0.026912   0.005519   0.000002  -0.000038
     9  C    0.075052   0.027370   0.003830   0.001061  -0.000000  -0.000009
    10  C    0.026912   0.003830  -0.000127   0.000137  -0.000000  -0.000000
    11  C    0.005519   0.001061   0.000137   0.000003  -0.000000  -0.000000
    12  C    0.000617  -0.000577   0.000082   0.000003   0.000000   0.000000
    13  C   -0.014269  -0.008188  -0.002893   0.000082   0.000000   0.000000
    14  C    0.021658  -0.027100  -0.008188  -0.000577   0.000000   0.000001
    15  C    0.071944   0.021658  -0.014269   0.000617  -0.000000   0.000003
    16  C    0.326065   0.191133  -0.193173   0.041767  -0.000009  -0.000015
    17  C   -1.013238   0.375507  -0.493157   0.029640  -0.000121   0.000371
    18  C    0.301514  -0.614341   0.284762  -0.156863   0.001012   0.002357
    19  C    6.906894   0.671268  -0.333815  -0.385325   0.000847   0.010828
    20  C    0.671268   9.462702  -2.598123   0.070983   0.015671   0.079885
    21  C   -0.333815  -2.598123   9.408105  -0.150282   0.013610  -0.029218
    22  C   -0.385325   0.070983  -0.150282   6.083598  -0.034527   0.011901
    23  H    0.000847   0.015671   0.013610  -0.034527   0.527382  -0.004720
    24  H    0.010828   0.079885  -0.029218   0.011901  -0.004720   0.535914
    25  H   -0.012147   0.033660   0.007445   0.001549  -0.000011   0.004301
    26  H    0.007760   0.002531   0.000101   0.000034   0.000000   0.000001
    27  H   -0.000637  -0.000178  -0.000008  -0.000001  -0.000000   0.000000
    28  H    0.000003   0.000001   0.000000   0.000000   0.000000   0.000000
    29  H   -0.000000   0.000000   0.000000   0.000000   0.000000   0.000000
    30  H    0.000002  -0.000000  -0.000000  -0.000000   0.000000   0.000000
    31  H   -0.000038  -0.000009  -0.000000  -0.000000   0.000000   0.000000
    32  H   -0.000364  -0.000089  -0.000022  -0.000003   0.000000  -0.000000
    33  H    0.018137   0.003586   0.002966   0.000524  -0.000000   0.000000
    34  H    0.332274  -0.053453  -0.016339  -0.006657   0.000000   0.000002
    35  H   -0.008224  -0.091801   0.301920   0.010868  -0.000156   0.000017
    36  H   -0.004900  -0.011441   0.014960   0.307231  -0.003903  -0.000156
              25         26         27         28         29         30
     1  C   -0.006657   0.000524  -0.000003  -0.000000  -0.000000   0.000000
     2  C   -0.016339   0.002966  -0.000022  -0.000000  -0.000000   0.000000
     3  C   -0.053453   0.003586  -0.000089  -0.000009  -0.000000   0.000000
     4  C    0.332274   0.018137  -0.000364  -0.000038   0.000002  -0.000000
     5  C   -0.051338  -0.063142  -0.008849   0.000225  -0.000015  -0.000009
     6  C    0.010496   0.281735   0.010496   0.004815   0.000251  -0.000121
     7  C   -0.008849  -0.063142  -0.051338  -0.012972  -0.003144   0.001012
     8  C   -0.000364   0.018137   0.332274  -0.008224  -0.004900   0.000847
     9  C   -0.000089   0.003586  -0.053453  -0.091801  -0.011441   0.015671
    10  C   -0.000022   0.002966  -0.016339   0.301920   0.014960   0.013610
    11  C   -0.000003   0.000524  -0.006657   0.010868   0.307231  -0.034527
    12  C   -0.000001   0.000034   0.001549   0.011901  -0.034527   0.307231
    13  C   -0.000008   0.000101   0.007445  -0.029218   0.013610   0.014960
    14  C   -0.000178   0.002531   0.033660   0.079885   0.015671  -0.011441
    15  C   -0.000637   0.007760  -0.012147   0.010828   0.000847  -0.004900
    16  C   -0.000874   0.033110   0.034525   0.002357   0.001012  -0.003144
    17  C    0.004494  -0.018669   0.004494   0.000371  -0.000121   0.000251
    18  C    0.034525   0.033110  -0.000874  -0.000015  -0.000009  -0.000015
    19  C   -0.012147   0.007760  -0.000637   0.000003  -0.000000   0.000002
    20  C    0.033660   0.002531  -0.000178   0.000001   0.000000  -0.000000
    21  C    0.007445   0.000101  -0.000008   0.000000   0.000000  -0.000000
    22  C    0.001549   0.000034  -0.000001   0.000000   0.000000  -0.000000
    23  H   -0.000011   0.000000  -0.000000   0.000000   0.000000   0.000000
    24  H    0.004301   0.000001   0.000000   0.000000   0.000000   0.000000
    25  H    0.534746   0.004547   0.000000   0.000000  -0.000000   0.000000
    26  H    0.004547   0.534268   0.004547   0.000001   0.000000  -0.000000
    27  H    0.000000   0.004547   0.534746   0.004301  -0.000011   0.000000
    28  H    0.000000   0.000001   0.004301   0.535914  -0.004720  -0.000156
    29  H   -0.000000   0.000000  -0.000011  -0.004720   0.527382  -0.003903
    30  H    0.000000  -0.000000   0.000000  -0.000156  -0.003903   0.527382
    31  H   -0.000000   0.000000   0.000002   0.000017  -0.000156  -0.004720
    32  H    0.000000   0.000002   0.000021   0.000002   0.000000  -0.000011
    33  H    0.000002   0.000021   0.000002   0.000000  -0.000000   0.000000
    34  H    0.000021   0.000002   0.000000  -0.000000   0.000000  -0.000000
    35  H    0.000002   0.000000  -0.000000   0.000000   0.000000   0.000000
    36  H    0.000000  -0.000000   0.000000   0.000000   0.000000   0.000000
              31         32         33         34         35         36
     1  C    0.000000  -0.000001   0.000034   0.001549   0.011901  -0.034527
     2  C    0.000000  -0.000008   0.000101   0.007445  -0.029218   0.013610
     3  C    0.000001  -0.000178   0.002531   0.033660   0.079885   0.015671
     4  C    0.000003  -0.000637   0.007760  -0.012147   0.010828   0.000847
     5  C   -0.000015  -0.000874   0.033110   0.034525   0.002357   0.001012
     6  C    0.000371   0.004494  -0.018669   0.004494   0.000371  -0.000121
     7  C    0.002357   0.034525   0.033110  -0.000874  -0.000015  -0.000009
     8  C    0.010828  -0.012147   0.007760  -0.000637   0.000003  -0.000000
     9  C    0.079885   0.033660   0.002531  -0.000178   0.000001   0.000000
    10  C   -0.029218   0.007445   0.000101  -0.000008   0.000000   0.000000
    11  C    0.011901   0.001549   0.000034  -0.000001   0.000000   0.000000
    12  C    0.010868  -0.006657   0.000524  -0.000003  -0.000000  -0.000000
    13  C    0.301920  -0.016339   0.002966  -0.000022  -0.000000  -0.000000
    14  C   -0.091801  -0.053453   0.003586  -0.000089  -0.000009  -0.000000
    15  C   -0.008224   0.332274   0.018137  -0.000364  -0.000038   0.000002
    16  C   -0.012972  -0.051338  -0.063142  -0.008849   0.000225  -0.000015
    17  C    0.004815   0.010496   0.281735   0.010496   0.004815   0.000251
    18  C    0.000225  -0.008849  -0.063142  -0.051338  -0.012972  -0.003144
    19  C   -0.000038  -0.000364   0.018137   0.332274  -0.008224  -0.004900
    20  C   -0.000009  -0.000089   0.003586  -0.053453  -0.091801  -0.011441
    21  C   -0.000000  -0.000022   0.002966  -0.016339   0.301920   0.014960
    22  C   -0.000000  -0.000003   0.000524  -0.006657   0.010868   0.307231
    23  H    0.000000   0.000000  -0.000000   0.000000  -0.000156  -0.003903
    24  H    0.000000  -0.000000   0.000000   0.000002   0.000017  -0.000156
    25  H   -0.000000   0.000000   0.000002   0.000021   0.000002   0.000000
    26  H    0.000000   0.000002   0.000021   0.000002   0.000000  -0.000000
    27  H    0.000002   0.000021   0.000002   0.000000  -0.000000   0.000000
    28  H    0.000017   0.000002   0.000000  -0.000000   0.000000   0.000000
    29  H   -0.000156   0.000000  -0.000000   0.000000   0.000000   0.000000
    30  H   -0.004720  -0.000011   0.000000  -0.000000   0.000000   0.000000
    31  H    0.535914   0.004301   0.000001   0.000000   0.000000   0.000000
    32  H    0.004301   0.534746   0.004547   0.000000   0.000000  -0.000000
    33  H    0.000001   0.004547   0.534268   0.004547   0.000001   0.000000
    34  H    0.000000   0.000000   0.004547   0.534746   0.004301  -0.000011
    35  H    0.000000   0.000000   0.000001   0.004301   0.535914  -0.004720
    36  H    0.000000  -0.000000   0.000000  -0.000011  -0.004720   0.527382
 Mulliken charges:
               1
     1  C   -0.290739
     2  C   -0.340288
     3  C    0.167558
     4  C   -0.091144
     5  C    0.001379
     6  C   -0.173126
     7  C    0.001379
     8  C   -0.091144
     9  C    0.167558
    10  C   -0.340288
    11  C   -0.290739
    12  C   -0.290739
    13  C   -0.340288
    14  C    0.167558
    15  C   -0.091144
    16  C    0.001379
    17  C   -0.173126
    18  C    0.001379
    19  C   -0.091144
    20  C    0.167558
    21  C   -0.340288
    22  C   -0.290739
    23  H    0.181982
    24  H    0.183742
    25  H    0.182909
    26  H    0.182330
    27  H    0.182909
    28  H    0.183742
    29  H    0.181982
    30  H    0.181982
    31  H    0.183742
    32  H    0.182909
    33  H    0.182330
    34  H    0.182909
    35  H    0.183742
    36  H    0.181982
 Sum of Mulliken charges =  -0.00000
 Mulliken charges with hydrogens summed into heavy atoms:
               1
     1  C   -0.108757
     2  C   -0.156547
     3  C    0.167558
     4  C    0.091765
     5  C    0.001379
     6  C    0.009205
     7  C    0.001379
     8  C    0.091765
     9  C    0.167558
    10  C   -0.156547
    11  C   -0.108757
    12  C   -0.108757
    13  C   -0.156547
    14  C    0.167558
    15  C    0.091765
    16  C    0.001379
    17  C    0.009205
    18  C    0.001379
    19  C    0.091765
    20  C    0.167558
    21  C   -0.156547
    22  C   -0.108757
 Electronic spatial extent (au):  <R**2>=           9344.0003
 Charge=             -0.0000 electrons
 Dipole moment (field-independent basis, Debye):
    X=             -0.0000    Y=             -0.0000    Z=             -0.0000  Tot=              0.0000
 Quadrupole moment (field-independent basis, Debye-Ang):
   XX=           -111.3325   YY=           -112.1925   ZZ=           -138.1479
   XY=             -0.0000   XZ=              0.0000   YZ=              0.0000
 Traceless Quadrupole moment (field-independent basis, Debye-Ang):
   XX=              9.2251   YY=              8.3652   ZZ=            -17.5903
   XY=             -0.0000   XZ=              0.0000   YZ=              0.0000
 Octapole moment (field-independent basis, Debye-Ang**2):
  XXX=              0.0000  YYY=             -0.0000  ZZZ=             -0.0000  XYY=              0.0000
  XXY=              0.0000  XXZ=             -0.0000  XZZ=              0.0000  YZZ=             -0.0000
  YYZ=             -0.0000  XYZ=             -0.0000
 Hexadecapole moment (field-independent basis, Debye-Ang**3):
 XXXX=         -10697.7026 YYYY=          -1147.9855 ZZZZ=           -172.0851 XXXY=              0.0000
 XXXZ=              0.0000 YYYX=             -0.0000 YYYZ=             -0.0000 ZZZX=              0.0000
 ZZZY=             -0.0000 XXYY=          -2013.2286 XXZZ=          -2266.6472 YYZZ=           -267.0837
 XXYZ=              0.0000 YYXZ=              0.0000 ZZXY=              0.0000
 N-N= 1.491104521660D+03 E-N=-4.943858748688D+03  KE= 8.411988954930D+02
 No NMR shielding tensors so no spin-rotation constants.
 Leave Link  601 at Thu Jul 21 10:31:06 2022, MaxMem= 13421772800 cpu:              11.3 elap:               0.3
 (Enter /share/apps/gaussian/G16B01/AVX2/g16/l701.exe)
 ... and contract with generalized density number  0.
 Compute integral first derivatives.
 Leave Link  701 at Thu Jul 21 10:31:07 2022, MaxMem= 13421772800 cpu:              20.9 elap:               0.5
 (Enter /share/apps/gaussian/G16B01/AVX2/g16/l702.exe)
 L702 exits ... SP integral derivatives will be done elsewhere.
 Leave Link  702 at Thu Jul 21 10:31:07 2022, MaxMem= 13421772800 cpu:               2.2 elap:               0.1
 (Enter /share/apps/gaussian/G16B01/AVX2/g16/l703.exe)
 Integral derivatives from FoFJK, PRISM(SPDF).
 Compute integral first derivatives, UseDBF=F ICtDFT=           0.
 Calling FoFJK, ICntrl=      2127 FMM=F ISym2X=0 I1Cent= 0 IOpClX= 0 NMat=1 NMatS=1 NMatT=0.
 FoFJK:  IHMeth= 1 ICntrl=    2127 DoSepK=F KAlg= 0 I1Cent=           0 FoldK=F
 IRaf=         0 NMat=       1 IRICut=       1 DoRegI=T DoRafI=F ISym2E= 0 IDoP0=0 IntGTp=1.
 FoFCou: FMM=F IPFlag=           0 FMFlag=      100000 FMFlg1=         800
         NFxFlg=           0 DoJE=F BraDBF=F KetDBF=F FulRan=T
         wScrn=  0.000000 ICntrl=      2127 IOpCl=  0 I1Cent=           0 NGrid=           0
         NMat0=    1 NMatS0=      1 NMatT0=    0 NMatD0=    1 NMtDS0=    0 NMtDT0=    0
 Symmetry not used in FoFCou.
 Leave Link  703 at Thu Jul 21 10:31:13 2022, MaxMem= 13421772800 cpu:             282.2 elap:               5.9
 (Enter /share/apps/gaussian/G16B01/AVX2/g16/l716.exe)
 Dipole        =-1.01252340D-13-1.10755849D-12-1.05960972D-13
 -------------------------------------------------------------------
 Center     Atomic                   Forces (Hartrees/Bohr)
 Number     Number              X              Y              Z
 -------------------------------------------------------------------
      1        6           0.000019452   -0.000080557    0.000000000
      2        6          -0.000022893    0.000006668   -0.000000000
      3        6           0.000024881    0.000041665    0.000000000
      4        6          -0.000087015   -0.000051573   -0.000000000
      5        6           0.000066051    0.000147750    0.000000000
      6        6           0.000000000   -0.000021110    0.000000000
      7        6          -0.000066051    0.000147750   -0.000000000
      8        6           0.000087015   -0.000051573   -0.000000000
      9        6          -0.000024881    0.000041665   -0.000000000
     10        6           0.000022893    0.000006668   -0.000000000
     11        6          -0.000019452   -0.000080557   -0.000000000
     12        6          -0.000019452    0.000080557   -0.000000000
     13        6           0.000022893   -0.000006668   -0.000000000
     14        6          -0.000024881   -0.000041665    0.000000000
     15        6           0.000087015    0.000051573   -0.000000000
     16        6          -0.000066051   -0.000147750   -0.000000000
     17        6           0.000000000    0.000021110    0.000000000
     18        6           0.000066051   -0.000147750   -0.000000000
     19        6          -0.000087015    0.000051573   -0.000000000
     20        6           0.000024881   -0.000041665   -0.000000000
     21        6          -0.000022893   -0.000006668   -0.000000000
     22        6           0.000019452    0.000080557   -0.000000000
     23        1          -0.000008649    0.000021838    0.000000000
     24        1           0.000004170    0.000005574    0.000000000
     25        1           0.000014169    0.000014367   -0.000000000
     26        1          -0.000000000    0.000007274   -0.000000000
     27        1          -0.000014169    0.000014367   -0.000000000
     28        1          -0.000004170    0.000005574    0.000000000
     29        1           0.000008649    0.000021838    0.000000000
     30        1           0.000008649   -0.000021838    0.000000000
     31        1          -0.000004170   -0.000005574    0.000000000
     32        1          -0.000014169   -0.000014367    0.000000000
     33        1           0.000000000   -0.000007274    0.000000000
     34        1           0.000014169   -0.000014367    0.000000000
     35        1           0.000004170   -0.000005574    0.000000000
     36        1          -0.000008649   -0.000021838   -0.000000000
 -------------------------------------------------------------------
 Cartesian Forces:  Max     0.000147750 RMS     0.000041931
 Leave Link  716 at Thu Jul 21 10:31:13 2022, MaxMem= 13421772800 cpu:               2.6 elap:               0.1
 (Enter /share/apps/gaussian/G16B01/AVX2/g16/l103.exe)

 GradGradGradGradGradGradGradGradGradGradGradGradGradGradGradGradGradGrad
 Berny optimization.
 FormGI is forming the generalized inverse of G from B-inverse, IUseBI=4.
 Internal  Forces:  Max     0.000108080 RMS     0.000016421
 Search for a local minimum.
 Step number   1 out of a maximum of  200
 All quantities printed in internal units (Hartrees-Bohrs-Radians)
 RMS Force = .16421D-04 SwitMx=.10000D-02 MixMth= 2
 Mixed Optimization -- En-DIIS/RFO-DIIS
 Second derivative matrix not updated -- first step.
 ITU=  0
     Eigenvalues ---    0.01614   0.01619   0.01667   0.01703   0.01710
     Eigenvalues ---    0.01716   0.01745   0.01792   0.01804   0.01829
     Eigenvalues ---    0.01842   0.01845   0.01895   0.01895   0.01927
     Eigenvalues ---    0.01928   0.02047   0.02047   0.02047   0.02053
     Eigenvalues ---    0.02053   0.02061   0.02061   0.02073   0.02073
     Eigenvalues ---    0.02082   0.02082   0.02083   0.02083   0.02170
     Eigenvalues ---    0.02170   0.02300   0.02300   0.16000   0.16000
     Eigenvalues ---    0.16000   0.16000   0.16000   0.16000   0.16000
     Eigenvalues ---    0.16000   0.16000   0.16000   0.16000   0.16000
     Eigenvalues ---    0.16000   0.16000   0.22000   0.22000   0.22464
     Eigenvalues ---    0.22484   0.22956   0.23241   0.23433   0.23708
     Eigenvalues ---    0.23887   0.24151   0.24546   0.24572   0.25000
     Eigenvalues ---    0.25000   0.25000   0.33103   0.34285   0.35005
     Eigenvalues ---    0.35005   0.35005   0.35005   0.35017   0.35017
     Eigenvalues ---    0.35097   0.35097   0.35097   0.35097   0.35210
     Eigenvalues ---    0.35210   0.35210   0.35210   0.35800   0.36960
     Eigenvalues ---    0.38082   0.38084   0.39166   0.39173   0.40146
     Eigenvalues ---    0.40146   0.40347   0.40569   0.41404   0.42634
[...]
 07,0.,0.00000192,0.00000264,0.,0.00000760,0.00000357,0.,0.00002150,-0.
 00001155,0.,0.00033765,0.00100409,0.,-0.12889602,0.13154766,0.,0.,0.00
 000416,0.,0.,-0.00000590,0.,0.,-0.00003376,0.,0.,0.00002040,0.,0.,0.00
 015650,0.,0.,-0.00006842,0.,0.,-0.00117587,0.,0.,0.00035791,0.,0.,0.00
 952676,0.,0.,0.00414496,0.,0.,-0.03637364,0.,0.,0.00247888,0.,0.,0.003
 70472,0.,0.,-0.00025116,0.,0.,-0.00059547,0.,0.,0.00015968,0.,0.,0.000
 03329,0.,0.,-0.00000688,0.,0.,-0.00002624,0.,0.,0.00001441,0.,0.,0.000
 00400,0.,0.,-0.00000402,0.,0.,0.00000154,0.,0.,0.00000054,0.,0.,0.0000
 0788,0.,0.,-0.00002719,0.,0.,0.00030923,0.,0.,-0.00553410,0.,0.,0.0248
 8496,-0.00001941,0.00001647,0.00000003,0.00001796,0.00002161,-0.000000
 03,-0.00002425,0.00001288,0.00000021,0.00003791,0.00003297,-0.00000007
 ,-0.00005017,0.00002016,0.,0.00009013,0.00003877,0.00000004,-0.0000757
 0,0.00005360,0.,0.00024951,-0.00005529,-0.00000006,-0.00004590,0.00046
 365,0.00000021,0.00128203,0.00054971,-0.00000011,0.00400187,0.00244105
 ,0.00000003,-0.27263541,-0.11989283,0.00000008,-0.02021248,-0.01580788
 ,-0.00000005,-0.00207663,0.00434070,-0.00000003,-0.00054049,-0.0012507
 0,0.00000004,-0.00043840,0.00031715,-0.00000011,0.00002041,-0.00015508
 ,-0.00000007,-0.00010611,0.00001623,-0.00000001,0.00003155,-0.00004470
 ,0.00000010,-0.00003933,-0.00000314,0.00000002,0.00001939,-0.00002548,
 -0.00000020,-0.00002576,-0.00001143,0.,-0.00000647,-0.00000222,0.,0.00
 000084,-0.00000562,0.,-0.00000005,-0.00000633,0.,-0.00000295,-0.000009
 57,0.,-0.00002408,-0.00004172,0.,0.00006110,0.00018907,0.,0.00070300,-
 0.00048061,0.,0.28876546,0.00000648,-0.00001665,0.00000002,-0.00001545
 ,0.00000410,-0.00000002,0.00003228,-0.00003279,0.00000013,-0.00005146,
 0.00000767,-0.00000004,0.00007662,-0.00006076,0.,-0.00012907,0.0000230
 8,0.00000002,0.00016408,-0.00013379,0.,-0.00036020,0.00015587,-0.00000
 004,0.00099194,-0.00031761,0.00000013,0.00183291,-0.00580792,-0.000000
 07,-0.02904590,-0.01032699,0.00000002,-0.12070408,-0.12777905,0.000000
 05,0.01599654,0.01221182,-0.00000003,0.00307400,-0.00176449,-0.0000000
 2,0.00017663,0.00077721,0.00000002,0.00036136,-0.00009797,-0.00000007,
 -0.00009131,0.00008938,-0.00000004,0.00009666,0.00003478,0.,-0.0000490
 6,0.00000560,0.00000006,0.00003071,0.00003384,0.00000001,-0.00001582,-
 0.00000424,-0.00000013,0.00000203,0.00002039,0.,-0.00000224,-0.0000009
 4,0.,0.00000071,-0.00000137,0.,0.00000212,-0.00000044,0.,0.00000912,0.
 00000486,0.,0.00006867,0.00005254,0.,-0.00146440,-0.00070107,0.,0.0004
 8062,0.00107530,0.,0.12889601,0.13154767,0.,0.,-0.00000402,0.,0.,0.000
 00400,0.,0.,0.00001441,0.,0.,-0.00002624,0.,0.,-0.00000688,0.,0.,0.000
 03328,0.,0.,0.00015968,0.,0.,-0.00059547,0.,0.,-0.00025116,0.,0.,0.003
 70472,0.,0.,0.00247888,0.,0.,-0.03637364,0.,0.,0.00414496,0.,0.,0.0095
 2676,0.,0.,0.00035791,0.,0.,-0.00117587,0.,0.,-0.00006842,0.,0.,0.0001
 5650,0.,0.,0.00002040,0.,0.,-0.00003376,0.,0.,-0.00000590,0.,0.,0.0000
 0416,0.,0.,-0.00000005,0.,0.,0.00000115,0.,0.,0.00000218,0.,0.,-0.0000
 0017,0.,0.,0.00005909,0.,0.,0.00021161,0.,0.,-0.00198099,0.,0.,0.02488
 496,-0.00000754,-0.00001061,0.,-0.00000106,0.00000237,0.,-0.00000962,-
 0.00001376,-0.00000002,-0.00000534,0.00000544,0.,-0.00000977,-0.000008
 99,0.,-0.00005038,0.00003625,0.,0.00023855,-0.00003541,0.,0.00045825,-
 0.00148768,0.,-0.00480987,-0.00089873,-0.00000002,-0.00078826,-0.00002
 331,0.00000001,-0.00460928,0.00148378,0.,0.00427574,0.02966869,0.,-0.0
 5920619,-0.00140363,0.,0.00308893,-0.02804974,0.,0.00160778,-0.0014450
 4,0.,0.00013009,0.00050447,0.00000001,-0.00005824,-0.00005441,0.,0.000
 03162,0.00002506,0.,-0.00001250,-0.00000373,0.,0.00002076,0.00000223,0
 .,-0.00000778,0.00000383,0.00000002,0.00001210,-0.00000257,0.,0.000000
 83,0.00000071,0.,-0.00000047,-0.00000009,0.,0.00000022,-0.00000045,0.,
 0.00001256,0.00002011,0.,-0.00038319,-0.00024241,0.,0.00021251,-0.0000
 0715,0.,0.00006110,0.00146440,0.,0.00104713,-0.00033765,0.,0.05918228,
 -0.00003239,0.00000693,0.00000003,0.00001943,0.00002561,-0.00000003,-0
 .00004343,0.00000660,0.00000021,0.00003105,0.00003284,-0.00000008,-0.0
 0008578,0.00001950,0.,0.00004415,0.00009931,0.00000004,0.00000755,0.00
 015730,0.,0.00068161,-0.00075692,-0.00000006,-0.00271129,0.00110317,0.
 00000021,-0.00020398,0.00049679,-0.00000012,0.00320819,0.00092820,0.00
 000003,-0.00236832,-0.01235029,0.00000008,-0.00051237,-0.33705788,-0.0
 0000005,0.00158012,-0.01266697,-0.00000003,0.00181708,0.00079717,0.000
 00004,-0.00046429,0.00030306,-0.00000012,0.00009809,-0.00014990,-0.000
 00007,-0.00008469,-0.00000184,-0.00000001,0.00004580,-0.00005210,0.000
 00010,-0.00002424,-0.00001262,0.00000002,0.00001803,-0.00002254,-0.000
 00021,-0.00001442,-0.00002181,0.,-0.00000563,-0.00000137,0.,-0.0000000
 7,-0.00000610,0.,-0.00000015,-0.00000771,0.,0.00002324,-0.00000553,0.,
 -0.00022662,-0.00014067,0.,0.00000715,-0.00011151,0.,-0.00018905,-0.00
 070107,0.,0.00028893,0.00100410,0.,-0.00004382,0.35849647,0.,0.,-0.000
 00330,0.,0.,0.00000149,0.,0.,0.00000344,0.,0.,-0.00000656,0.,0.,-0.000
 01122,0.,0.,-0.00000604,0.,0.,-0.00009788,0.,0.,0.00008122,0.,0.,0.004
 09973,-0.00000001,0.,-0.00049684,0.,0.,0.00872062,0.,0.,0.00457139,0.,
 0.,-0.03596057,0.,0.,0.00319485,0.,0.,-0.00246773,0.,0.,-0.00017403,0.
 ,0.,0.00004966,0.,0.,0.00001983,0.,0.,-0.00000600,0.,0.,-0.00001154,0.
 ,0.,0.00000038,0.,0.,0.,0.,0.,0.00000115,0.,0.,0.00000105,0.,0.,0.0000
 0213,0.,0.,0.00003196,0.,0.,0.00027768,0.,0.,-0.00129035,0.,0.,0.00021
 161,0.,0.,-0.00553410,0.,0.,0.02441876,-0.00002228,-0.00003103,0.,-0.0
 0000288,0.00001884,0.,-0.00001740,-0.00003769,0.00000002,-0.00006096,0
 .00005485,0.,0.00023784,-0.00007547,0.,0.00041588,-0.00144514,0.,-0.00
 472728,-0.00092470,0.,-0.00077245,0.00000495,0.,-0.00462242,0.00105670
 ,0.00000002,0.00040549,0.00138564,-0.00000001,0.00016950,0.00016602,0.
 ,0.00014519,-0.00044484,0.,0.00141871,0.00169496,0.,0.00351772,0.02845
 884,0.,-0.05956523,-0.00047331,0.,0.00328519,-0.02825776,-0.00000001,0
 .00148397,-0.00156978,0.,0.00014585,0.00050747,0.,-0.00006330,-0.00004
 053,0.00000001,0.00004447,0.00002094,0.,-0.00001431,0.00000280,-0.0000
 0002,0.00002533,-0.00000249,0.,-0.00000004,0.00000213,0.,0.00000022,-0
 .00000014,0.,0.00001349,0.00002088,0.,-0.00037395,-0.00023912,0.,0.000
 17567,0.00000102,0.,-0.00038319,0.00022662,0.,-0.00002408,-0.00006867,
 0.,-0.00000099,-0.00002149,0.,-0.00039342,-0.00083495,0.,0.05999624,-0
 .00006135,0.00000845,0.,0.00003535,0.00004089,0.,-0.00009894,0.0000146
 3,0.00000007,0.00004131,0.00009316,-0.00000003,-0.00002520,0.00018383,
 0.,0.00068722,-0.00080428,0.00000001,-0.00278995,0.00121337,0.,-0.0000
 1132,0.00037345,-0.00000002,0.00291843,0.00120488,0.00000007,-0.000711
 08,-0.00078206,-0.00000004,0.00009094,0.00017936,0.,0.00028977,0.00000
 220,0.00000003,-0.00203572,0.00086991,-0.00000002,-0.00122944,-0.01361
 531,-0.00000001,-0.00015540,-0.33380966,0.00000001,0.00134657,-0.01297
 083,-0.00000004,0.00194393,0.00076965,-0.00000002,-0.00043062,0.000271
 37,0.,0.00009357,-0.00014214,0.00000003,-0.00006500,-0.00003548,0.,0.0
 0003811,-0.00003084,-0.00000007,-0.00001465,-0.00005067,0.,-0.00000634
 ,-0.00000044,0.,-0.00000045,-0.00000772,0.,0.00002088,-0.00000751,0.,-
 0.00023110,-0.00014893,0.,-0.00000102,-0.00017855,0.,0.00024240,-0.000
 14068,0.,0.00004172,0.00005253,0.,0.00005939,-0.00001154,0.,0.00084333
 ,0.00054782,0.,0.00000640,0.35632636,0.,0.,-0.00000830,0.,0.,-0.000000
 54,0.,0.,-0.00001477,0.,0.,0.00000512,0.,0.,-0.00013842,0.,0.,0.000094
 36,0.,0.,0.00489014,0.,0.,-0.00055738,0.00000001,0.,0.00652826,-0.0000
 0002,0.,0.00009441,0.,0.,-0.00016491,0.,0.,-0.00017433,-0.00000002,0.,
 -0.00453122,0.,0.,0.00439996,0.,0.,-0.03452680,0.,0.00000002,0.0037074
 1,0.,0.,-0.00326160,0.,0.,-0.00019793,0.,0.,0.00015554,0.,0.,0.0000192
 5,0.,0.,-0.00003554,0.,0.,-0.00000224,0.,0.,0.00000218,0.,0.,0.0000021
 3,0.,0.,0.00003650,0.,0.,0.00034197,0.,0.,-0.00121248,0.,0.,0.00027768
 ,0.,0.,0.00005909,0.,0.,0.00030923,0.,0.,0.00035330,0.,0.,0.02314282,-
 0.00003984,-0.00007001,0.,-0.00005081,0.00008001,0.,0.00023795,-0.0001
 1904,0.,0.00039957,-0.00142012,0.,-0.00466792,-0.00096373,0.,-0.000783
 34,0.,0.,-0.00466793,0.00096373,0.,0.00039956,0.00142013,0.,0.00023794
 ,0.00011905,0.,-0.00005079,-0.00008001,0.,-0.00003984,0.00007002,0.,0.
 00005033,-0.00000603,0.,-0.00006274,0.00001386,0.,0.00014960,-0.000496
 49,0.,0.00142790,0.00163511,0.,0.00343608,0.02833430,0.,-0.05953990,0.
 ,0.,0.00343608,-0.02833433,0.,0.00142790,-0.00163510,0.,0.00014960,0.0
 0049648,0.,-0.00006275,-0.00001386,0.,0.00005033,0.00000603,0.,-0.0000
 0294,0.00000913,0.,0.00001256,0.00002324,0.,-0.00037395,-0.00023110,0.
 ,0.00017712,0.,0.,-0.00037395,0.00023110,0.,0.00001256,-0.00002323,0.,
 -0.00000295,-0.00000912,0.,0.00000325,-0.00000760,0.,-0.00002495,-0.00
 001518,0.,-0.00040660,-0.00080928,0.,0.05997115,-0.00012564,0.00000811
 ,0.00000002,0.00004510,0.00011457,-0.00000002,-0.00005029,0.00017268,0
 .00000017,0.00068725,-0.00080845,-0.00000006,-0.00285162,0.00124348,0.
 ,0.,0.00035939,0.00000003,0.00285166,0.00124351,0.,-0.00068726,-0.0008
 0844,-0.00000005,0.00005026,0.00017269,0.00000017,-0.00004508,0.000114
 56,-0.00000009,0.00012562,0.00000808,0.00000002,0.00002628,-0.00010663
 ,0.00000006,-0.00006653,-0.00009740,-0.00000004,0.00038698,0.00019777,
 -0.00000002,-0.00200698,0.00078646,0.00000003,-0.00129497,-0.01324044,
 -0.00000009,0.,-0.33411754,-0.00000005,0.00129494,-0.01324047,0.,0.002
 00705,0.00078646,0.00000008,-0.00038702,0.00019777,0.00000002,0.000066
 51,-0.00009741,-0.00000017,-0.00002624,-0.00010665,0.,-0.00000955,0.00
 000488,0.,0.00002013,-0.00000552,0.,-0.00023913,-0.00014891,0.,0.,-0.0
 0018043,0.,0.00023911,-0.00014891,0.,-0.00002012,-0.00000551,0.,0.0000
 0955,0.00000487,0.,0.00001575,0.00000357,0.,0.00000820,0.00002234,0.,0
 .00082085,0.00055094,0.,0.,0.35654372,0.,0.,-0.00002419,0.,0.,0.000026
 77,0.,0.,-0.00012920,0.,0.,0.00008065,0.,0.,0.00562461,0.,0.,-0.000561
 11,0.,0.,0.00562461,0.,0.,0.00008065,0.00000002,0.,-0.00012920,-0.0000
 0003,0.,0.00002677,0.,0.,-0.00002419,0.,0.,0.00000068,-0.00000002,0.,0
 .00022989,0.,0.,-0.00020908,0.,0.,-0.00386933,0.,0.00000003,0.00409777
 ,0.,-0.00000001,-0.03421002,0.,0.00000001,0.00409777,0.,0.,-0.00386933
 ,0.,0.,-0.00020908,0.,0.,0.00022989,0.,0.,0.00000067,0.,0.,-0.00000017
 ,0.,0.,0.00003196,0.,0.,0.00034197,0.,-0.00000001,-0.00124274,0.,0.,0.
 00034197,0.,0.,0.00003196,0.,0.,-0.00000017,0.,0.,-0.00002719,0.,0.,0.
 00001625,0.,0.,0.00037792,0.,0.,0.02287524,0.00016950,-0.00016601,0.,0
 .00040550,-0.00138563,0.,-0.00462244,-0.00105673,0.00000003,-0.0007724
 5,-0.00000497,-0.00000001,-0.00472729,0.00092471,0.,0.00041588,0.00144
 513,0.,0.00023785,0.00007548,0.,-0.00006096,-0.00005487,0.,-0.00001737
 ,0.00003767,0.00000003,-0.00000291,-0.00001882,-0.00000002,-0.00002228
 ,0.00003103,0.,0.00002531,0.00000250,0.00000001,-0.00001431,-0.0000028
 2,0.,0.00004447,-0.00002091,0.,-0.00006330,0.00004051,0.,0.00014583,-0
 .00050743,-0.00000002,0.00148397,0.00156975,-0.00000001,0.00328520,0.0
 2825778,0.,-0.05956523,0.00047328,0.00000002,0.00351774,-0.02845881,0.
 ,0.00141869,-0.00169497,-0.00000003,0.00014520,0.00044484,0.,-0.000024
 09,0.00006867,0.,-0.00038319,-0.00022662,0.,0.00017567,-0.00000102,0.,
 -0.00037395,0.00023911,0.,0.00001350,-0.00002089,0.,0.00000022,0.00000
 013,0.,-0.00000003,-0.00000213,0.,-0.00000031,-0.00000191,0.,-0.000002
 83,-0.00000291,0.,-0.00002683,-0.00001236,0.,-0.00040660,-0.00082084,0
 .,0.05999624,-0.00009095,0.00017938,0.,0.00071108,-0.00078206,0.,-0.00
 291843,0.00120487,0.00000008,0.00001132,0.00037344,-0.00000003,0.00278
 995,0.00121335,0.,-0.00068723,-0.00080429,0.00000001,0.00002522,0.0001
 8384,0.,-0.00004130,0.00009316,-0.00000002,0.00009897,0.00001464,0.000
 00008,-0.00003538,0.00004090,-0.00000004,0.00006134,0.00000842,0.00000
 001,0.00001467,-0.00005065,0.00000003,-0.00003816,-0.00003085,-0.00000
 002,0.00006500,-0.00003547,-0.00000001,-0.00009353,-0.00014215,0.00000
 001,0.00043061,0.00027142,-0.00000004,-0.00194394,0.00076963,-0.000000
 03,-0.00134659,-0.01297084,0.,0.00015543,-0.33380967,0.00000004,0.0012
 2945,-0.01361530,0.,0.00203568,0.00086991,-0.00000008,-0.00028976,0.00
 000219,0.,-0.00004173,0.00005253,0.,-0.00024239,-0.00014068,0.,0.00000
 101,-0.00017854,0.,0.00023110,-0.00014894,0.,-0.00002088,-0.00000752,0
 .,0.00000045,-0.00000773,0.,0.00000636,-0.00000045,0.,0.00000953,0.000
 00265,0.,0.00000059,0.00001031,0.,0.00001237,0.00002089,0.,0.00080928,
 0.00055095,0.,-0.00000639,0.35632637,0.,0.,-0.00016491,0.,0.,0.0000944
 1,0.,0.,0.00652826,0.,0.,-0.00055739,0.,0.,0.00489014,0.,0.,0.00009436
 ,0.,0.,-0.00013842,0.,0.,0.00000512,0.,0.,-0.00001477,0.,0.,-0.0000005
 5,0.,0.,-0.00000829,0.,0.,-0.00000223,0.,0.,-0.00003554,0.,0.,0.000019
 25,0.,0.,0.00015554,0.,0.,-0.00019793,0.,0.,-0.00326161,0.,0.,0.003707
 41,0.,0.,-0.03452680,0.,0.,0.00439996,0.,0.,-0.00453122,0.,0.,-0.00017
 433,0.,0.,0.00005909,0.,0.,0.00027768,0.,0.,-0.00121248,0.,0.,0.000341
 97,0.,0.,0.00003650,0.,0.,0.00000213,0.,0.,0.00000218,0.,0.,0.00000788
 ,0.,0.,0.00000660,0.,0.,0.00001473,0.,0.,0.00037792,0.,0.,0.02314282,-
 0.00460927,-0.00148379,0.,-0.00078825,0.00002331,0.,-0.00480988,0.0008
 9876,-0.00000003,0.00045824,0.00148770,0.,0.00023857,0.00003540,0.,-0.
 00005038,-0.00003624,0.,-0.00000978,0.00000899,0.,-0.00000535,-0.00000
 542,0.,-0.00000966,0.00001377,-0.00000003,-0.00000103,-0.00000239,0.00
 000001,-0.00000754,0.00001062,0.,0.00001211,0.00000256,0.,-0.00000775,
 -0.00000381,0.,0.00002074,-0.00000225,0.,-0.00001250,0.00000375,0.,0.0
 0003163,-0.00002511,0.00000001,-0.00005823,0.00005443,0.,0.00013008,-0
 .00050447,0.,0.00160777,0.00144506,-0.00000001,0.00308891,0.02804971,0
 .,-0.05920615,0.00140363,0.00000003,0.00427572,-0.02966869,0.,0.000061
 10,-0.00146440,0.,0.00021252,0.00000715,0.,-0.00038319,0.00024240,0.,0
 .00001256,-0.00002010,0.,0.00000021,0.00000046,0.,-0.00000047,0.000000
 09,0.,0.00000082,-0.00000070,0.,0.00000016,-0.00000012,0.,0.00000008,0
 .00000039,0.,-0.00000284,-0.00000059,0.,-0.00002495,-0.00000820,0.,-0.
 00039343,-0.00084334,0.,0.05918228,-0.00320822,0.00092824,0.00000003,0
 .00020400,0.00049679,-0.00000003,0.00271127,0.00110315,0.00000020,-0.0
 0068162,-0.00075693,-0.00000007,-0.00000751,0.00015726,0.,-0.00004417,
 0.00009931,0.00000004,0.00008583,0.00001953,0.,-0.00003105,0.00003285,
 -0.00000006,0.00004343,0.00000662,0.00000020,-0.00001945,0.00002561,-0
 .00000011,0.00003237,0.00000687,0.00000003,0.00001447,-0.00002178,0.00
 000008,-0.00001811,-0.00002253,-0.00000005,0.00002421,-0.00001262,-0.0
 0000003,-0.00004571,-0.00005211,0.00000004,0.00008465,-0.00000177,-0.0
 0000011,-0.00009811,-0.00014991,-0.00000007,0.00046424,0.00030303,-0.0
 0000001,-0.00181700,0.00079716,0.00000010,-0.00158015,-0.01266698,0.00
 000002,0.00051233,-0.33705788,-0.00000020,0.00236836,-0.01235031,0.,0.
 00018905,-0.00070106,0.,-0.00000713,-0.00011152,0.,0.00022660,-0.00014
 067,0.,-0.00002324,-0.00000555,0.,0.00000014,-0.00000772,0.,0.00000008
 ,-0.00000611,0.,0.00000565,-0.00000138,0.,0.00000724,0.00000208,0.,-0.
 00000040,0.00000725,0.,0.00000292,0.00001031,0.,0.00001517,0.00002235,
 0.,0.00083496,0.00054783,0.,0.00004381,0.35849649,0.,0.,0.00872062,0.,
 0.,-0.00049684,0.,0.,0.00409973,0.,0.,0.00008122,0.,0.,-0.00009788,0.,
 0.,-0.00000604,0.,0.,-0.00001121,0.,0.,-0.00000656,0.,0.,0.00000344,-0
 .00000001,0.,0.00000149,0.,0.,-0.00000330,0.,0.,0.,-0.00000001,0.,0.00
 000037,0.,0.,-0.00001154,0.,0.,-0.00000600,0.,0.00000001,0.00001983,0.
 ,0.,0.00004966,0.,0.,-0.00017403,0.,0.,-0.00246773,0.,0.,0.00319485,0.
 ,0.,-0.03596057,0.,0.,0.00457139,0.,0.,0.00021161,0.,0.,-0.00129035,0.
 ,0.,0.00027768,0.,0.,0.00003196,0.,0.,0.00000213,0.,0.,0.00000105,0.,0
 .,0.00000115,0.,0.,0.00000054,0.,0.,0.00000251,0.,0.,0.00000660,0.,0.,
 0.00001625,0.,0.,0.00035330,0.,0.,0.02441876,0.00400188,-0.00244106,0.
 ,0.00128206,-0.00054967,0.,-0.00004596,-0.00046371,-0.00000002,0.00024
 951,0.00005523,0.,-0.00007576,-0.00005355,0.,0.00009014,-0.00003882,0.
 ,-0.00005015,-0.00002015,0.,0.00003791,-0.00003304,0.,-0.00002419,-0.0
 0001297,-0.00000002,0.00001794,-0.00002157,0.,-0.00001939,-0.00001642,
 0.,-0.00002584,0.00001143,0.,0.00001948,0.00002545,0.,-0.00003935,0.00
 000324,0.,0.00003148,0.00004464,0.,-0.00010614,-0.00001620,0.,0.000020
 42,0.00015500,0.,-0.00043833,-0.00031705,0.,-0.00054051,0.00125064,0.,
 -0.00207659,-0.00434060,0.,-0.02021249,0.01580785,0.00000002,-0.272635
 38,0.11989287,0.,0.00070298,0.00048061,0.,0.00006109,-0.00018907,0.,-0
 .00002408,0.00004171,0.,-0.00000295,0.00000955,0.,-0.00000003,0.000006
 34,0.,0.00000083,0.00000562,0.,-0.00000645,0.00000223,0.,-0.00000681,-
 0.00000176,0.,0.00000017,-0.00000722,0.,-0.00000032,-0.00000951,0.,0.0
 0000325,-0.00001575,0.,-0.00000099,-0.00005938,0.,0.00104713,-0.000288
 92,0.,0.28876544,0.02904589,-0.01032698,0.,-0.00183292,-0.00580793,0.,
 -0.00099193,-0.00031758,0.00000005,0.00036020,0.00015589,-0.00000002,-
 0.00016403,-0.00013382,0.,0.00012907,0.00002310,0.,-0.00007662,-0.0000
 6076,0.,0.00005145,0.00000770,-0.00000001,-0.00003233,-0.00003275,0.00
 000005,0.00001548,0.00000407,-0.00000003,-0.00000649,-0.00001666,0.,-0
 .00000199,0.00002039,0.00000002,0.00001581,-0.00000422,-0.00000001,-0.
 00003073,0.00003380,0.,0.00004910,0.00000563,0.,-0.00009667,0.00003474
 ,-0.00000003,0.00009131,0.00008942,-0.00000001,-0.00036140,-0.00009802
 ,0.,-0.00017660,0.00077724,0.00000002,-0.00307404,-0.00176453,0.,-0.01
 599654,0.01221183,-0.00000005,0.12070408,-0.12777907,0.,-0.00048061,0.
 00107530,0.,0.00146441,-0.00070106,0.,-0.00006867,0.00005253,0.,-0.000
 00912,0.00000488,0.,-0.00000213,-0.00000044,0.,-0.00000071,-0.00000137
 ,0.,0.00000223,-0.00000095,0.,0.00000175,0.00000113,0.,0.00000012,0.00
 000207,0.,0.00000191,0.00000264,0.,0.00000760,0.00000357,0.,0.00002149
 ,-0.00001154,0.,0.00033765,0.00100409,0.,-0.12889601,0.13154766,0.,0.,
 0.00247888,0.,0.,0.00370472,0.,0.,-0.00025116,0.,0.,-0.00059547,0.,0.,
 0.00015968,0.,0.,0.00003328,0.,0.,-0.00000688,0.,0.,-0.00002624,0.,0.,
 0.00001441,0.00000001,0.,0.00000400,0.,0.,-0.00000402,0.,0.,0.00000416
 ,0.,0.,-0.00000590,0.,0.,-0.00003376,0.,0.,0.00002040,0.,-0.00000001,0
 .00015650,0.,0.,-0.00006842,0.,0.,-0.00117587,0.,0.,0.00035791,0.,0.,0
 .00952676,0.,0.,0.00414496,0.,0.,-0.03637364,0.,0.,-0.00198099,0.,0.,0
 .00021161,0.,0.,0.00005909,0.,0.,-0.00000017,0.,0.,0.00000218,0.,0.,0.
 00000115,0.,0.,-0.00000005,0.,0.,0.00000154,0.,0.,0.00000054,0.,0.,0.0
 0000788,0.,0.,-0.00002719,0.,0.,0.00030923,0.,0.,-0.00553410,0.,0.,0.0
 2488496\\-0.00001945,0.00008057,0.,0.00002288,-0.00000667,0.,-0.000024
 88,-0.00004166,0.,0.00008700,0.00005157,0.,-0.00006605,-0.00014778,0.,
 0.,0.00002109,0.,0.00006605,-0.00014778,0.,-0.00008700,0.00005157,0.,0
 .00002488,-0.00004166,0.,-0.00002288,-0.00000667,0.,0.00001945,0.00008
 057,0.,0.00001945,-0.00008057,0.,-0.00002288,0.00000667,0.,0.00002488,
 0.00004166,0.,-0.00008700,-0.00005157,0.,0.00006605,0.00014778,0.,0.,-
 0.00002109,0.,-0.00006605,0.00014778,0.,0.00008700,-0.00005157,0.,-0.0
 0002488,0.00004166,0.,0.00002288,0.00000667,0.,-0.00001945,-0.00008057
 ,0.,0.00000865,-0.00002184,0.,-0.00000417,-0.00000558,0.,-0.00001417,-
 0.00001437,0.,0.,-0.00000727,0.,0.00001417,-0.00001437,0.,0.00000417,-
 0.00000558,0.,-0.00000865,-0.00002184,0.,-0.00000865,0.00002184,0.,0.0
 0000417,0.00000558,0.,0.00001417,0.00001437,0.,0.,0.00000727,0.,-0.000
 01417,0.00001437,0.,-0.00000417,0.00000558,0.,0.00000865,0.00002184,0.
 \\\@


 TO DETECT ERRORS, THE PROGRAMMER MUST HAVE A CONNIVING MIND,
 ONE THAT DELIGHTS IN UNCOVERING FLAWS WHERE BEAUTY AND
 PERFECTION WERE ONCE THOUGHT TO LIE.

             -- THE PSYCHOLOGY OF COMPUTER PROGRAMMING
                GERALD M. WEINBERG
 Job cpu time:       0 days  3 hours 25 minutes 34.3 seconds.
 Elapsed time:       0 days  0 hours  4 minutes 17.8 seconds.
 File lengths (MBytes):  RWF=    644 Int=      0 D2E=      0 Chk=     16 Scr=      1
 Normal termination of Gaussian 16 at Thu Jul 21 10:35:32 2022.
