  MPI-parallelism will be employed.
------------------------------------------------------------
          Invoking FHI-aims ...
          Version 180319
          Git rev.: 4a4f92f IYZ: fix a mpi communication bug for osRPA
          Compiled on 2018/04/08 at 15:28:21 on host xhpc1.

          When using FHI-aims, please cite the following reference:

          Volker Blum, Ralf Gehrke, Felix Hanke, Paula Havu,
          Ville Havu, Xinguo Ren, Karsten Reuter, and Matthias Scheffler,
          'Ab Initio Molecular Simulations with Numeric Atom-Centered Orbitals',
          Computer Physics Communications 180, 2175-2196 (2009)

          For any questions about FHI-aims, please visit the aimsclub website
          with its forums and wiki. Contributions to both the forums and the
          wiki are warmly encouraged - they are for you, and everyone is welcome there.

------------------------------------------------------------



  Date     :  20230430, Time     :  232305.657
  Time zero on CPU 1             :   0.522696000000000E+00  s.
  Internal wall clock time zero  :           452128985.657  s.

  FHI-aims created a unique identifier for this run for later identification
  aims_uuid : E213B445-9391-4E78-A203-CB85044300FC

  Using        8 parallel tasks.
  Task        0 on host xc07n05 reporting.
  Task        1 on host xc07n05 reporting.
  Task        2 on host xc07n05 reporting.
  Task        3 on host xc07n05 reporting.
  Task        4 on host xc07n05 reporting.
  Task        5 on host xc07n05 reporting.
  Task        6 on host xc07n05 reporting.
  Task        7 on host xc07n05 reporting.

  Performing system and environment tests:
  | Environment variable OMP_NUM_THREADS correctly set to 1.
  | Maximum stacksize for task 0: unlimited
  | Maximum stacksize for task 1: unlimited
  | Maximum stacksize for task 2: unlimited
  | Maximum stacksize for task 3: unlimited
  | Maximum stacksize for task 4: unlimited
  | Maximum stacksize for task 5: unlimited
  | Maximum stacksize for task 6: unlimited
  | Maximum stacksize for task 7: unlimited
  | Current stacksize for task 0: unlimited
  | Current stacksize for task 1: unlimited
  | Current stacksize for task 2: unlimited
  | Current stacksize for task 3: unlimited
  | Current stacksize for task 4: unlimited
  | Current stacksize for task 5: unlimited
  | Current stacksize for task 6: unlimited
  | Current stacksize for task 7: unlimited
  | Checking for scalapack...
  | Testing pdtran()...
  | All pdtran() tests passed.

  Obtaining array dimensions for all initial allocations:
  
  -----------------------------------------------------------------------
  Parsing control.in (first pass over file, find array dimensions only).
  The contents of control.in will be repeated verbatim below
  unless switched off by setting 'verbatim_writeout .false.' .
  in the first line of control.in .
  -----------------------------------------------------------------------
  
  xc                       pbe0
  total_energy_method      zrps
  en_shift                 3
  coupling_pt2_factor      1.0d0
  coupling_pt2_screen      1.0d0
  coupling_pt2_shift       0.0d0
  RI_method                V
  KS_method                serial
  frequency_points         60
  frozen_core_postSCF      0
  relativistic             none
  occupation_type          gaussian 0.0001
  mixer                    pulay
  n_max_pulay              10
  charge_mix_param         0.6
  sc_iter_limit            1000
  sc_accuracy_rho          1E-6
  sc_accuracy_eev          1E-4
  sc_accuracy_etot         1E-6
  override_illconditioning .true.
  charge                   0.0
  #spin                     collinear
  #fixed_spin_moment        0
  #default_initial_moment   0
  
  
  ################################################################################
  #
  #  FHI-aims code project
  # Igor Ying Zhang and Xinguo Ren, Fritz Haber Institute Berlin, 2012
  #
  #  Suggested "cc-pVDZ" defaults for H atom (to be pasted into control.in file)
  #
  ################################################################################
    species        H
  #     global species definitions
      nucleus             1
      mass                1.00794
  #
      l_hartree           6
  #
      cut_pot             4.0  2.0  1.0
      basis_dep_cutoff    0e-0
  #
      radial_base         24 7.0
      radial_multiplier   6
      angular_grids       specified
        division   0.1930   50
        division   0.3175  110
        division   0.4293  194
        division   0.5066  302
        division   0.5626  434
        division   0.5922  590
  #      division   0.6227  974
  #      division   0.6868 1202
        outer_grid  770
  #      outer_grid  434
  ################################################################################
  #
  #  Definition of "minimal" basis
  #
  ################################################################################
  #     valence basis states
      valence      1  s   1.
  #     ion occupancy
      ion_occ      1  s   0.5
  ################################################################################
  #
  #   For exact comparison with all GTO-based codes, one or more of
  #   the following flags are needed:
  #
      include_min_basis   .false.
      pure_gauss          .true.
  #
  
  
  # H cc-pVDZ
   gaussian 0 3
        13.0100000            0.0196850
         1.9620000            0.1379770
         0.4446000            0.4781480
   gaussian 0 1 0.1220000
   gaussian 1 1 0.7270000
  
  -----------------------------------------------------------------------
  Completed first pass over input file control.in .
  -----------------------------------------------------------------------
  
  
  -----------------------------------------------------------------------
  Parsing geometry.in (first pass over file, find array dimensions only).
  The contents of geometry.in will be repeated verbatim below
  unless switched off by setting 'verbatim_writeout .false.' .
  in the first line of geometry.in .
  -----------------------------------------------------------------------
  
  atom   0.000  0.000  8.000    H
  atom   0.000  0.000  0.000    H
  
  
  -----------------------------------------------------------------------
  Completed first pass over input file geometry.in .
  -----------------------------------------------------------------------
  

  Basic array size parameters:
  | Number of species                 :        1
  | Number of atoms                   :        2
  | Max. basis fn. angular momentum   :        1
  | Max. atomic/ionic basis occupied n:        1
  | Max. number of basis fn. types    :        1
  | Max. radial fns per species/type  :        3
  | Max. logarithmic grid size        :     1131
  | Max. radial integration grid size :      149
  | Max. angular integration grid size:      770
  | Max. angular grid division number :        8
  | Radial grid for Hartree potential :     1131
  | Number of spin channels           :        1

------------------------------------------------------------
          Reading file control.in.
------------------------------------------------------------
  XC: Using hybrid-PBE0 functionals.
  Running post-KS double-hybrid ZRPS calculation
  Energy shifting on the denominators:      3
  Coupling factor for PT2 on the denominators:       1.00000000
  Screening factor for coupling PT2:       1.00000000
  Shift for screening effect in coupling PT2:       0.00000000
  Energy shifting on the denominators:      3
  Coupling factor for PT2 on the denominators:       1.00000000
  Screening factor for coupling PT2:       1.00000000
  Shift for screening effect in coupling PT2:       0.00000000
 The 'V' version of RI (resolution of identity) technique is used.
  Kohn-Sham eigenvalues and eigenfunctions calculated by ELSI.
  Number of frequency points used for the self-energy calculation:     60
  Core electrons are frozen in the post-SCF calculation :     0
  Non-relativistic treatment of kinetic energy.
  Occupation type: Gaussian broadening, width =   0.100000E-03 eV.
  Using pulay charge density mixing.
  Pulay mixing - number of memorized iterations:   10
  Charge density mixing - mixing parameter:     0.6000
  Maximum number of s.-c. iterations  :  1000
  Convergence accuracy of self-consistent charge density:  0.1000E-05
  Convergence accuracy of sum of eigenvalues:  0.1000E-03
  Convergence accuracy of total energy:  0.1000E-05
  override_illconditioning: Explicitly overriding any built-in checks for an ill-conditioned overlap matrix.
  *** WARNING: If you use this flag, you should really know what you are doing.
  *** DO NOT keep this flag set by default in all your control.in files.
  Charge =   0.000000E+00: Neutral system requested explicitly.
 
  Reading configuration options for species H                   .
  | Found nuclear charge :   1.0000
  | Found atomic mass :    1.00794000000000      amu
  | Found l_max for Hartree potential  :   6
  | Found cutoff potl. onset [A], width [A], scale factor :    4.00000    2.00000    1.00000
  | Threshold for basis-dependent cutoff potential is   0.000000E+00
  | Found data for basic radial integration grid :    24 points, outermost radius =    7.000 A
  | Found multiplier for basic radial grid :   6
  | Found angular grid specification: user-specified.
  | Specified grid contains     7 separate shells.
  | Check grid settings after all constraints further below.
  | Found free-atom valence shell :  1 s   1.000
  | No ionic wave fns used. Skipping ion_occ.
  | Found request to include minimal basis fns. :     F
  | Found request to include pure gaussian fns. :     T
  | Found contracted cartesian Gaussian basis function :  L = 0 ,   3 elementary Gaussians:
  |   alpha = 0.130100E+02 weight = 0.196850E-01
  |   alpha = 0.196200E+01 weight = 0.137977E+00
  |   alpha = 0.444600E+00 weight = 0.478148E+00
  |   In terms of angular momentum, this radial function adds: 
  |     1 s-type basis function
  | Found primitive cartesian Gaussian basis function :  0 0.122000E+00
  |   In terms of angular momentum, this radial function adds: 
  |     1 s-type basis function
  | Found primitive cartesian Gaussian basis function :  1 0.727000E+00
  |   In terms of angular momentum, this radial function adds: 
  |     3 p-type basis functions
  Species H                   : Missing cutoff potential type.
  Defaulting to exp(1/x)/(1-x)^2 type cutoff potential.
  Species H : No 'logarithmic' tag. Using default grid for free atom:
  | Default logarithmic grid data [bohr] : 0.1000E-03 0.1000E+03 0.1012E+01
  Species H : On-site basis accuracy parameter (for Gram-Schmidt orthonormalisation) not specified.
  Using default value basis_acc =  0.1000000E-03.
  Species H                   : Using default innermost maximum threshold i_radial=  2 for radial functions.
  Species H                   : Default cutoff onset for free atom density etc. is infinite
  since the product basis is used (hybrid functionals, Hartree-Fock, GW etc.).
  Species H                   : Basic radial grid will be enhanced according to radial_multiplier =   6, to contain   149 grid points.
 
  Finished reading input file 'control.in'. Consistency checks are next.
 
  MPI_IN_PLACE appears to work with this MPI implementation.
  | Keeping use_mpi_in_place .true. (see manual).
  Species H: Using default value for prodbas_acc =   1.000000E-02.
  Species H: Using default value max_l_prodbas =     5.
  Target number of points in a grid batch is not set. Defaulting to  100
  Method for grid partitioning is not set. Defaulting to parallel hash+maxmin partitioning.
  Batch size limit is not set. Defaulting to    200
  By default, will store active basis functions for each batch.
  If in need of memory, prune_basis_once .false. can be used to disable this option.
  communication_type for Hartree potential was not specified.
  Defaulting to calc_hartree .
  Pulay mixer: Number of initial linear mixing iterations not set.
  Defaulting to    0 iterations.
  Work space size for distributed Hartree potential not set.
  Defaulting to   0.200000E+03 MB.
  Algorithm-dependent basis array size parameters:
  | n_max_pulay                         :       10
  Presetting      1001 iterations before the initial mixing cycle
  is restarted anyway using the sc_init_iter criterion / keyword.
  Presetting a factor      1.000 between actual scf density residual
  and density convergence criterion sc_accuracy_rho below which sc_init_iter
  takes no effect.
  Calculation of forces was not defined in control.in. No forces will be calculated.
  Geometry relaxation not requested: no relaxation will be performed.
  No accuracy limit for integral partition fn. given. Defaulting to  0.1000E-14.
  No threshold value for u(r) in integrations given. Defaulting to  0.1000E-05.
  No accuracy for occupation numbers given. Defaulting to  0.1000E-12.
  No threshold value for occupation numbers given. Defaulting to  0.0000E+00.
  No accuracy for fermi level given. Defaulting to  0.1000E-19.
  Maximum # of iterations to find E_F not set. Defaulting to  200.
  Will not use alltoall communication since running on < 1024 CPUs.
  Threshold for basis singularities not set.
  Default threshold for basis singularities:  0.1000E-04
  partition_type (choice of integration weights) for integrals was not specified.
  | Using a version of the partition function of Stratmann and coworkers ('stratmann_smoother').
  | At each grid point, the set of atoms used to build the partition table is smoothly restricted to
  | only those atoms whose free-atom density would be non-zero at that grid point.
  Partitioning for Hartree potential was not defined. Using partition_type for integrals.
  | Adjusted default value of keyword multip_moments_threshold to:       0.10000000E-11
  | This value may affect high angular momentum components of the Hartree potential in periodic systems.
  Spin handling was not defined in control.in. Defaulting to unpolarized case.
  Threshold for auxiliary basis singularities not set.
  Default threshold for auxiliary basis singularities:  0.1000E-04
  No q(lm)/r^(l+1) cutoff set for long-range Hartree potential.
  | Using default value of  0.100000E-09 .
  | Verify using the multipole_threshold keyword.
  Defaulting to new monopole extrapolation.
  Density update method: automatic selection selected.
  Default to 1D ("use_logsbt") integrations for auxiliary 2-center integrals.
  Default onset of logarithmic r-grid for SBT is-38.000000000000
  Default onset of logarithmic k-grid for SBT is-25.000000000000
  Default range of logarithmic r- and k-grid for SBT is 45.000000000000
  Default number of logarithmic r- and k-grid for SBT is  4096
------------------------------------------------------------


------------------------------------------------------------
          Reading geometry description geometry.in.
------------------------------------------------------------
  Input structure read successfully.
  The structure contains        2 atoms,  and a total of          2.000 electrons.

  Input geometry:
  | No unit cell requested.
  | Atomic structure:
  |       Atom                x [A]            y [A]            z [A]
  |    1: Species H             0.00000000        0.00000000        8.00000000
  |    2: Species H             0.00000000        0.00000000        0.00000000
  |

  | The smallest distance between any two atoms is         8.00000000 AA.
  |
  | The first atom of this pair is atom number                      1 .
  | The second atom of this pair is atom number                     2 .

  Number of empty states per atom not set in control.in .
  | Since you are using a method that relies on the unoccupied spectrum
  | (MP2,GW,RPA et al.), will use the full Hamiltonian size (see below)
  | as the max. possible number of states (occupied plus empty).

  First valence state in the frozen-core algorithm :           1
  |                             Main-group    Transition-metal
  | Atom number     ::                   2                   0
  | n_frozen_shell  ::                   0                   0
  Structure-dependent array size parameters: 
  | Maximum number of distinct radial functions  :        3
  | Maximum number of basis functions            :       10
  | Number of Kohn-Sham states (occupied + empty):       10
  | Number of core electrons for post-SCF        :        0
------------------------------------------------------------

------------------------------------------------------------
          Preparing all fixed parts of the calculation.
------------------------------------------------------------
  Determining machine precision:
    2.225073858507201E-308
  Setting up grids for atomic and cluster calculations.

  Creating wave function, potential, and density for free atoms.

  Species: H

  List of occupied orbitals and eigenvalues:
    n    l              occ      energy [Ha]    energy [eV]
    1    0           1.0000        -0.238600        -6.4926

  Creating fixed part of basis set: Ionic, confined, hydrogenic.
 
  H                    Gaussian:
 
  List of cartesian Gaussian basis orbitals: 
    L    l
    0    0
    0    0
    1    1
 

  Adding cutoff potential to free-atom effective potential.
  Creating atomic-like basis functions for current effective potential.
  Assembling full basis from fixed parts.
  | Species H : gaussian orbital   0 s accepted.
  | Species H : gaussian orbital   0 s accepted.
  | Species H : gaussian orbital   1 p accepted.
 
  Basis size parameters after reduction:
  | Total number of radial functions:        3
  | Total number of basis functions :       10
 
  Per-task memory consumption for arrays in subroutine allocate_ext:
  |           0.651888MB.
  Testing on-site integration grid accuracy.
  |  Species  Function  <phi|h_atom|phi> (log., in eV)  <phi|h_atom|phi> (rad., in eV)
           1        1                 -3.5819590401                 -3.5819602135
           1        2                  8.3309295161                  8.3309289796
           1        3                 32.4058937669                 32.4058937205

  Preparing densities etc. for the partition functions (integrals / Hartree potential).

  Preparations completed.
  max(cpu_time)          :      0.051 s.
  Wall clock time (cpu1) :      0.052 s.
------------------------------------------------------------

------------------------------------------------------------
          Begin self-consistency loop: Initialization.

          Date     :  20230430, Time     :  232305.768
------------------------------------------------------------

  Initializing index lists of integration centers etc. from given atomic structure:
  | Number of centers in hartree potential         :         2
  | Number of centers in hartree multipole         :         2
  | Number of centers in electron density summation:         2
  | Number of centers in basis integrals           :         2
  | Number of centers in integrals                 :         2
  | Number of centers in hamiltonian               :         2
  Partitioning the integration grid into batches with parallel hashing+maxmin method.
  | Number of batches:     1834
  | Maximal batch size:     158
  | Minimal batch size:      62
  | Average batch size:      78.737
  | Standard deviation of batch sizes:      23.263

  Integration load balanced across     8 MPI tasks.
  Work distribution over tasks is as follows:
  Task     0 has      18081 integration points.
  Task     1 has      18020 integration points.
  Task     2 has      18051 integration points.
  Task     3 has      18053 integration points.
  Task     4 has      18019 integration points.
  Task     5 has      18080 integration points.
  Task     6 has      18015 integration points.
  Task     7 has      18085 integration points.
  Initializing partition tables, free-atom densities, potentials, etc. across the integration grid (initialize_grid_storage).
  | Species        1: outer_partition_radius set to             16.344003741102970 AA .
  | Original list of interatomic distances with           2 x          2 entries is created.
  | Net number of integration points:   144404
  | of which are non-zero points    :   143926
  Renormalizing the initial density to the exact electron count on the 3D integration grid.
  | Initial density: Formal number of electrons (from input files) :       2.0000000000
  | Integrated number of electrons on 3D grid     :       1.9999999918
  | Charge integration error                      :      -0.0000000082
  | Normalization factor for density and gradient :       1.0000000041
  Obtaining max. number of non-zero basis functions in each batch (get_n_compute_maxes).
  | Maximal number of non-zero basis functions:        6 in task     0
  | Maximal number of non-zero basis functions:        6 in task     1
  | Maximal number of non-zero basis functions:        6 in task     2
  | Maximal number of non-zero basis functions:        6 in task     3
  | Maximal number of non-zero basis functions:        6 in task     4
  | Maximal number of non-zero basis functions:        6 in task     5
  | Maximal number of non-zero basis functions:        6 in task     6
  | Maximal number of non-zero basis functions:        6 in task     7
  Selecting the method for density update.
  Loop over occupied states selected for charge density update.
  Allocating        0.001 MB for KS_eigenvector
  Integrating Hamiltonian matrix: batch-based integration.
  Time summed over all CPUs for integration: real work        0.134 s, elapsed        0.137 s
  Integrating overlap matrix.
  Time summed over all CPUs for integration: real work        0.033 s, elapsed        0.040 s

  Updating Kohn-Sham eigenvalues and eigenvectors using ELSI and the ELPA eigensolver.
  Overlap matrix is nonsingular
  | Lowest eigenvalue of overlap  :  0.10E+01
  | Highest eigenvalue of overlap :  0.10E+01
  Finished singularity check of overlap matrix
  | Time :     0.001 s
  Finished Cholesky decomposition
  | Time :     0.000 s
  Finished transformation to standard eigenproblem
  | Time :     0.000 s
  Starting LAPACK eigensolver
  Finished solving standard eigenproblem
  | Time :     0.000 s
  Finished back-transformation of eigenvectors
  | Time :     0.000 s

  Obtaining occupation numbers and chemical potential using ELSI.
  | Chemical potential (Fermi level):    -6.44020459eV
  Writing Kohn-Sham eigenvalues.

  State    Occupation    Eigenvalue [Ha]    Eigenvalue [eV]
      1       1.10706          -0.236674           -6.44021
      2       0.89294          -0.236673           -6.44020
      3       0.00000           0.411192           11.18910
      4       0.00000           0.411197           11.18925
      5       0.00000           1.190895           32.40589
      6       0.00000           1.190895           32.40589
      7       0.00000           1.190895           32.40589
      8       0.00000           1.190895           32.40589
      9       0.00000           1.190895           32.40589
     10       0.00000           1.190895           32.40589

  Highest occupied state (VBM) at     -6.44021411 eV
  | Occupation number:      1.10706084

  Lowest unoccupied state (CBM) at    -6.44019507 eV
  | Occupation number:      0.89293916

  Overall HOMO-LUMO gap:      0.00001903 eV.
  This system has fractional occupation numbers. Thus, it is a degenerate system
  within the approximate finite broadening function (occupation_type)
  applied to determine the occupation numbers.
  This may not be harmful. However, for some systems (free atoms), a different, non-degenerate
  ground state might exist by using a smaller broadening (see keyword occupation_type).
  Calculating total energy contributions from superposition of free atom densities.

  Total energy components:
  | Sum of eigenvalues            :          -0.47334641 Ha         -12.88041122 eV
  | XC energy correction          :          -0.50272085 Ha         -13.67973048 eV
  | XC potential correction       :           0.64168670 Ha          17.46118361 eV
  | Free-atom electrostatic energy:          -0.57962318 Ha         -15.77234926 eV
  | Hartree energy correction     :           0.00000000 Ha           0.00000000 eV
  | Entropy correction            :          -0.00000205 Ha          -0.00005591 eV
  | ---------------------------
  | Total energy                  :          -0.91400375 Ha         -24.87130734 eV
  | Total energy, T -> 0          :          -0.91400580 Ha         -24.87136326 eV  <-- do not rely on this value for anything but (periodic) metals
  | Electronic free energy        :          -0.91400785 Ha         -24.87141917 eV

  Derived energy quantities:
  | Kinetic energy                :           0.89834962 Ha          24.44533685 eV
  | Electrostatic energy          :          -1.30963251 Ha         -35.63691372 eV
  | Energy correction for multipole
  | error in Hartree potential    :           0.00000000 Ha           0.00000000 eV
  | Sum of eigenvalues per atom                           :          -6.44020561 eV
  | Total energy (T->0) per atom                          :         -12.43568163 eV  <-- do not rely on this value for anything but (periodic) metals
  | Electronic free energy per atom                       :         -12.43570958 eV
 
 --------------------------------------------
  Constructing auxiliary basis (full product) ...
 
  Product basis:
  | charge radius: extent of product basis function
  | field radius: extent of its Coulomb potential
  | Species   l  charge radius    field radius  multipol momen
  |    H      1     3.215356 A      3.215356 A        8.252506E-17 a.u.
  |    H      0     3.815562 A      3.815562 A        1.866738E-16 a.u.
  |    H      0     5.781930 A      5.781930 A        2.048910E-16 a.u.
  |    H      2     2.517934 A  8.608416E+03 A            0.342576 a.u.
  |    H      1     3.254905 A  1.287336E+06 A            0.470947 a.u.
  |    H      0     5.711676 A  3.461514E+12 A            0.520541 a.u.

  | Shrink_full_auxil_basis : there are        6  radial auxiliary wave functions
                            accepted and       2 rejected.
  | Shrink_full_auxil_basis : there are totally                  28 partial auxiliary wave functions.
 
  | Number of product basis functions per thread :     4
  | Minimal requirement for computer memory :           0.000 Gbs
 
  Basis pair condensation :        55  -->         39
 
 ----------------------------------------------------
  Integrating the 3-basis-function Coulomb matrix ...
  | i_atom:            1
  | i_atom:            2
  Integrating the Coulomb interaction matrix for auxiliary basis functions (by atoms)

  SBT integration errors (all should be 'small'):
  large logFT aliasing -> increase N/lnrange
  large SBT aliasing -> decrease lnk0 & increase lnk0+lnrange
  large SBT ringing -> decrease lnr0 & increase lnr0+lnrange
  |            El't  L: logFT-al.   small-k   large-k   small-r   large-r
  Atomic logSBT for 2-center Coulomb matrix    :  max(cpu_time)    wall_clock(cpu1)
  | Multiplication with kernel                 :        0.000 s           0.000 s
  | Main matrix multiplication                 :        0.000 s           0.001 s
  | Analytic angular integration               :        0.000 s           0.000 s
  | Kernel construction                        :        0.000 s           0.000 s
  | Overall 2-center overlap time              :        0.002 s           0.002 s

  Difference of Coulomb matrix to its transposed:  4.8837E-17
  Task     0: Eigenvalues of the Coulomb matrix range from    1.2277E+00 to    7.7229E-01.
  Task     0: Using       28   eigenvalues out of rank       28   Coulomb matrix (auxiliary basis).
 
  Multiplying V^-0.5 x ovlp_3fn (1d-scalapack)

  Initialize hartree_potential_storage
  Max. number of atoms included in rho_multipole:            2

  End scf initialization - timings             :  max(cpu_time)    wall_clock(cpu1)
  | Time for scf. initialization               :        0.179 s           0.181 s
  | Boundary condition initialization          :        0.000 s           0.000 s
  | Integration                                :        0.023 s           0.023 s
  | Solution of K.-S. eqns.                    :        0.001 s           0.002 s
  | Grid partitioning                          :        0.029 s           0.029 s
  | Preloading free-atom quantities on grid    :        0.011 s           0.011 s
  | Free-atom superposition energy             :        0.011 s           0.011 s
  | Total energy evaluation                    :        0.000 s           0.000 s
  | Product basis setup: Total time            :        0.096 s           0.096 s
  | Product basis: | 3-center integrations     :        0.072 s           0.071 s
  | Product basis: | 2-center integrations     :        0.020 s           0.021 s
  | Product basis: | 2-center linear algebra   :        0.001 s           0.000 s
  | Product basis: | 3-center x 2-center       :        0.000 s           0.001 s

  Partial memory accounting:
  | Current value for overall tracked memory usage on task 0  :           0.002 MB
  | Peak value for overall tracked memory usage on task 0     :           0.025 MB after allocating wave
  | Largest tracked array allocation on task 0 so far         :           0.008 MB  when allocating H_times_psi
  Note:  These values currently only include a subset of arrays which are explicitly tracked.
  The "true" memory usage will be greater.
------------------------------------------------------------

------------------------------------------------------------
          Begin self-consistency iteration #    1

  Date     :  20230430, Time     :  232305.949
------------------------------------------------------------
  Evaluating new KS density.
  Integration grid: deviation in total charge (<rho> - N_e) =   1.776357E-15
  Pulay mixing of updated and previous charge densities.

  Evaluating partitioned Hartree potential by multipole expansion.
  | Analytical far-field extrapolation by fixed multipoles:
  | Hartree multipole sum: apparent total charge =  -0.132336E-06
  Summing up the Hartree potential.
  Time summed over all CPUs for potential: real work        0.108 s, elapsed        0.109 s
  | RMS charge density error from multipole expansion :   0.180474E-05

  Integrating Hamiltonian matrix: batch-based integration.
  Time summed over all CPUs for integration: real work        0.129 s, elapsed        0.132 s
  Evaluating the exchange matrix ... 

  Updating Kohn-Sham eigenvalues and eigenvectors using ELSI and the ELPA eigensolver.
  Finished Cholesky decomposition
  | Time :     0.000 s
  Finished transformation to standard eigenproblem
  | Time :     0.000 s
  Starting LAPACK eigensolver
  Finished solving standard eigenproblem
  | Time :     0.000 s
  Finished back-transformation of eigenvectors
  | Time :     0.000 s

  Obtaining occupation numbers and chemical potential using ELSI.
  | Chemical potential (Fermi level):    -6.28184528eV
  Writing Kohn-Sham eigenvalues.

  State    Occupation    Eigenvalue [Ha]    Eigenvalue [eV]
      1       2.00000          -0.232312           -6.32152
      2       0.00000          -0.230541           -6.27335
      3       0.00000           0.468424           12.74646
      4       0.00000           0.468430           12.74663
      5       0.00000           1.260826           34.30881
      6       0.00000           1.260827           34.30886
      7       0.00000           1.260827           34.30886
      8       0.00000           1.260831           34.30895
      9       0.00000           1.260831           34.30895
     10       0.00000           1.260833           34.30900

  Highest occupied state (VBM) at     -6.32152353 eV
  | Occupation number:      2.00000000

  Lowest unoccupied state (CBM) at    -6.27334970 eV
  | Occupation number:      0.00000000

  Overall HOMO-LUMO gap:      0.04817382 eV.

  Total energy components:
  | Sum of eigenvalues            :          -0.46462344 Ha         -12.64304705 eV
  | XC energy correction          :          -0.31471298 Ha          -8.56377603 eV
  | XC potential correction       :           0.49907600 Ha          13.58054889 eV
  | Free-atom electrostatic energy:          -0.57962318 Ha         -15.77234926 eV
  | Hartree energy correction     :          -0.00998069 Ha          -0.27158837 eV
  | Entropy correction            :           0.00000000 Ha           0.00000000 eV
  | ---------------------------
  | Total energy                  :          -0.86986430 Ha         -23.67021182 eV
  | Total energy, T -> 0          :          -0.86986430 Ha         -23.67021182 eV  <-- do not rely on this value for anything but (periodic) metals
  | Electronic free energy        :          -0.86986430 Ha         -23.67021182 eV

  Derived energy quantities:
  | Kinetic energy                :           1.35154448 Ha          36.77739663 eV
  | Electrostatic energy          :          -1.30959552 Ha         -35.63590729 eV
  | Energy correction for multipole
  | error in Hartree potential    :          -0.00000001 Ha          -0.00000015 eV
  | Sum of eigenvalues per atom                           :          -6.32152353 eV
  | Total energy (T->0) per atom                          :         -11.83510591 eV  <-- do not rely on this value for anything but (periodic) metals
  | Electronic free energy per atom                       :         -11.83510591 eV

  Self-consistency convergence accuracy:
  | Change of charge density      :  0.7807E-02
  | Change of sum of eigenvalues  :  0.2374E+00 eV
  | Change of total energy        :  0.1201E+01 eV

  End self-consistency iteration #     1       :  max(cpu_time)    wall_clock(cpu1)
  | Time for this iteration                    :        0.045 s           0.045 s
  | Charge density update                      :        0.009 s           0.009 s
  | Density mixing                             :        0.002 s           0.002 s
  | Hartree multipole update                   :        0.003 s           0.003 s
  | Hartree multipole summation                :        0.014 s           0.014 s
  | Integration                                :        0.017 s           0.016 s
  | Fock matrix evaluation                     :        0.000 s           0.000 s
  | Solution of K.-S. eqns.                    :        0.000 s           0.000 s
  | Total energy evaluation                    :        0.000 s           0.000 s

  Partial memory accounting:
  | Current value for overall tracked memory usage on task 0  :           0.002 MB
  | Peak value for overall tracked memory usage on task 0     :           0.032 MB after allocating gradient_basis_wave
  | Largest tracked array allocation on task 0 so far         :           0.023 MB  when allocating gradient_basis_wave
  Note:  These values currently only include a subset of arrays which are explicitly tracked.
  The "true" memory usage will be greater.
------------------------------------------------------------

------------------------------------------------------------
          Begin self-consistency iteration #    2

  Date     :  20230430, Time     :  232305.996
------------------------------------------------------------
  Evaluating new KS density.
  Integration grid: deviation in total charge (<rho> - N_e) =   2.220446E-15
  Pulay mixing of updated and previous charge densities.

  Evaluating partitioned Hartree potential by multipole expansion.
  | Analytical far-field extrapolation by fixed multipoles:
  | Hartree multipole sum: apparent total charge =  -0.144944E-06
  Summing up the Hartree potential.
  Time summed over all CPUs for potential: real work        0.107 s, elapsed        0.108 s
  | RMS charge density error from multipole expansion :   0.196623E-05

  Integrating Hamiltonian matrix: batch-based integration.
  Time summed over all CPUs for integration: real work        0.129 s, elapsed        0.130 s
  Evaluating the exchange matrix ... 

  Updating Kohn-Sham eigenvalues and eigenvectors using ELSI and the ELPA eigensolver.
  Finished Cholesky decomposition
  | Time :     0.000 s
  Finished transformation to standard eigenproblem
  | Time :     0.000 s
  Starting LAPACK eigensolver
  Finished solving standard eigenproblem
  | Time :     0.000 s
  Finished back-transformation of eigenvectors
  | Time :     0.000 s

  Obtaining occupation numbers and chemical potential using ELSI.
  | Chemical potential (Fermi level):    -6.28393754eV
  Highest occupied state (VBM) at     -6.36334399 eV
  | Occupation number:      2.00000000

  Lowest unoccupied state (CBM) at    -6.25400750 eV
  | Occupation number:      0.00000000

  Overall HOMO-LUMO gap:      0.10933649 eV.

  Checking to see if s.c.f. parameters should be adjusted.

  Total energy components:
  | Sum of eigenvalues            :          -0.46769719 Ha         -12.72668798 eV
  | XC energy correction          :          -0.31301687 Ha          -8.51762253 eV
  | XC potential correction       :           0.49794295 Ha          13.54971713 eV
  | Free-atom electrostatic energy:          -0.57962318 Ha         -15.77234926 eV
  | Hartree energy correction     :          -0.00865452 Ha          -0.23550147 eV
  | Entropy correction            :           0.00000000 Ha           0.00000000 eV
  | ---------------------------
  | Total energy                  :          -0.87104881 Ha         -23.70244411 eV
  | Total energy, T -> 0          :          -0.87104881 Ha         -23.70244411 eV  <-- do not rely on this value for anything but (periodic) metals
  | Electronic free energy        :          -0.87104881 Ha         -23.70244411 eV

  Derived energy quantities:
  | Kinetic energy                :           1.34964212 Ha          36.72563054 eV
  | Electrostatic energy          :          -1.30435408 Ha         -35.49328028 eV
  | Energy correction for multipole
  | error in Hartree potential    :          -0.00000001 Ha          -0.00000017 eV
  | Sum of eigenvalues per atom                           :          -6.36334399 eV
  | Total energy (T->0) per atom                          :         -11.85122205 eV  <-- do not rely on this value for anything but (periodic) metals
  | Electronic free energy per atom                       :         -11.85122205 eV

  Self-consistency convergence accuracy:
  | Change of charge density      :  0.1219E-01
  | Change of sum of eigenvalues  : -0.8364E-01 eV
  | Change of total energy        : -0.3223E-01 eV

  End self-consistency iteration #     2       :  max(cpu_time)    wall_clock(cpu1)
  | Time for this iteration                    :        0.044 s           0.043 s
  | Charge density update                      :        0.008 s           0.007 s
  | Density mixing                             :        0.003 s           0.003 s
  | Hartree multipole update                   :        0.003 s           0.003 s
  | Hartree multipole summation                :        0.014 s           0.013 s
  | Integration                                :        0.016 s           0.017 s
  | Fock matrix evaluation                     :        0.000 s           0.000 s
  | Solution of K.-S. eqns.                    :        0.000 s           0.000 s
  | Total energy evaluation                    :        0.000 s           0.000 s

  Partial memory accounting:
  | Current value for overall tracked memory usage on task 0  :           0.003 MB
  | Peak value for overall tracked memory usage on task 0     :           0.032 MB after allocating gradient_basis_wave
  | Largest tracked array allocation on task 0 so far         :           0.023 MB  when allocating gradient_basis_wave
  Note:  These values currently only include a subset of arrays which are explicitly tracked.
  The "true" memory usage will be greater.
------------------------------------------------------------

------------------------------------------------------------
          Begin self-consistency iteration #    3

  Date     :  20230430, Time     :  232306.040
------------------------------------------------------------
  Evaluating new KS density.
  Integration grid: deviation in total charge (<rho> - N_e) =  -2.664535E-15
  Pulay mixing of updated and previous charge densities.

  Evaluating partitioned Hartree potential by multipole expansion.
  | Analytical far-field extrapolation by fixed multipoles:
  | Hartree multipole sum: apparent total charge =  -0.132716E-06
  Summing up the Hartree potential.
  Time summed over all CPUs for potential: real work        0.106 s, elapsed        0.108 s
  | RMS charge density error from multipole expansion :   0.288023E-05

  Integrating Hamiltonian matrix: batch-based integration.
  Time summed over all CPUs for integration: real work        0.128 s, elapsed        0.130 s
  Evaluating the exchange matrix ... 

  Updating Kohn-Sham eigenvalues and eigenvectors using ELSI and the ELPA eigensolver.
  Finished Cholesky decomposition
  | Time :     0.000 s
  Finished transformation to standard eigenproblem
  | Time :     0.000 s
  Starting LAPACK eigensolver
  Finished solving standard eigenproblem
  | Time :     0.000 s
  Finished back-transformation of eigenvectors
  | Time :     0.000 s

  Obtaining occupation numbers and chemical potential using ELSI.
  | Chemical potential (Fermi level):    -6.27678475eV
  Highest occupied state (VBM) at     -6.59551845 eV
  | Occupation number:      2.00000000

  Lowest unoccupied state (CBM) at    -6.14560647 eV
  | Occupation number:      0.00000000

  Overall HOMO-LUMO gap:      0.44991198 eV.

  Total energy components:
  | Sum of eigenvalues            :          -0.48476170 Ha         -13.19103689 eV
  | XC energy correction          :          -0.30251853 Ha          -8.23194810 eV
  | XC potential correction       :           0.49175406 Ha          13.38130884 eV
  | Free-atom electrostatic energy:          -0.57962318 Ha         -15.77234926 eV
  | Hartree energy correction     :          -0.00136427 Ha          -0.03712361 eV
  | Entropy correction            :           0.00000000 Ha           0.00000000 eV
  | ---------------------------
  | Total energy                  :          -0.87651362 Ha         -23.85114902 eV
  | Total energy, T -> 0          :          -0.87651362 Ha         -23.85114902 eV  <-- do not rely on this value for anything but (periodic) metals
  | Electronic free energy        :          -0.87651362 Ha         -23.85114902 eV

  Derived energy quantities:
  | Kinetic energy                :           1.34805680 Ha          36.68249186 eV
  | Electrostatic energy          :          -1.27491499 Ha         -34.69220196 eV
  | Energy correction for multipole
  | error in Hartree potential    :          -0.00000001 Ha          -0.00000023 eV
  | Sum of eigenvalues per atom                           :          -6.59551845 eV
  | Total energy (T->0) per atom                          :         -11.92557451 eV  <-- do not rely on this value for anything but (periodic) metals
  | Electronic free energy per atom                       :         -11.92557451 eV

  Self-consistency convergence accuracy:
  | Change of charge density      :  0.1034E-01
  | Change of sum of eigenvalues  : -0.4643E+00 eV
  | Change of total energy        : -0.1487E+00 eV

  End self-consistency iteration #     3       :  max(cpu_time)    wall_clock(cpu1)
  | Time for this iteration                    :        0.044 s           0.044 s
  | Charge density update                      :        0.008 s           0.008 s
  | Density mixing                             :        0.003 s           0.003 s
  | Hartree multipole update                   :        0.002 s           0.002 s
  | Hartree multipole summation                :        0.014 s           0.014 s
  | Integration                                :        0.016 s           0.017 s
  | Fock matrix evaluation                     :        0.000 s           0.000 s
  | Solution of K.-S. eqns.                    :        0.000 s           0.000 s
  | Total energy evaluation                    :        0.000 s           0.000 s

  Partial memory accounting:
  | Current value for overall tracked memory usage on task 0  :           0.003 MB
  | Peak value for overall tracked memory usage on task 0     :           0.033 MB after allocating gradient_basis_wave
  | Largest tracked array allocation on task 0 so far         :           0.023 MB  when allocating gradient_basis_wave
  Note:  These values currently only include a subset of arrays which are explicitly tracked.
  The "true" memory usage will be greater.
------------------------------------------------------------

------------------------------------------------------------
          Begin self-consistency iteration #    4

  Date     :  20230430, Time     :  232306.084
------------------------------------------------------------
  Evaluating new KS density.
  Integration grid: deviation in total charge (<rho> - N_e) =   1.332268E-15
  Pulay mixing of updated and previous charge densities.

  Evaluating partitioned Hartree potential by multipole expansion.
  | Analytical far-field extrapolation by fixed multipoles:
  | Hartree multipole sum: apparent total charge =  -0.132728E-06
  Summing up the Hartree potential.
  Time summed over all CPUs for potential: real work        0.106 s, elapsed        0.108 s
  | RMS charge density error from multipole expansion :   0.287995E-05

  Integrating Hamiltonian matrix: batch-based integration.
  Time summed over all CPUs for integration: real work        0.128 s, elapsed        0.130 s
  Evaluating the exchange matrix ... 

  Updating Kohn-Sham eigenvalues and eigenvectors using ELSI and the ELPA eigensolver.
  Finished Cholesky decomposition
  | Time :     0.000 s
  Finished transformation to standard eigenproblem
  | Time :     0.000 s
  Starting LAPACK eigensolver
  Finished solving standard eigenproblem
  | Time :     0.000 s
  Finished back-transformation of eigenvectors
  | Time :     0.000 s

  Obtaining occupation numbers and chemical potential using ELSI.
  | Chemical potential (Fermi level):    -6.27755195eV
  Highest occupied state (VBM) at     -6.59628561 eV
  | Occupation number:      2.00000000

  Lowest unoccupied state (CBM) at    -6.14628474 eV
  | Occupation number:      0.00000000

  Overall HOMO-LUMO gap:      0.45000087 eV.

  Total energy components:
  | Sum of eigenvalues            :          -0.48481808 Ha         -13.19257121 eV
  | XC energy correction          :          -0.30248063 Ha          -8.23091684 eV
  | XC potential correction       :           0.49169342 Ha          13.37965873 eV
  | Free-atom electrostatic energy:          -0.57962318 Ha         -15.77234926 eV
  | Hartree energy correction     :          -0.00128872 Ha          -0.03506777 eV
  | Entropy correction            :           0.00000000 Ha           0.00000000 eV
  | ---------------------------
  | Total energy                  :          -0.87651719 Ha         -23.85124635 eV
  | Total energy, T -> 0          :          -0.87651719 Ha         -23.85124635 eV  <-- do not rely on this value for anything but (periodic) metals
  | Electronic free energy        :          -0.87651719 Ha         -23.85124635 eV

  Derived energy quantities:
  | Kinetic energy                :           1.34775633 Ha          36.67431573 eV
  | Electrostatic energy          :          -1.27473643 Ha         -34.68734319 eV
  | Energy correction for multipole
  | error in Hartree potential    :          -0.00000001 Ha          -0.00000023 eV
  | Sum of eigenvalues per atom                           :          -6.59628561 eV
  | Total energy (T->0) per atom                          :         -11.92562318 eV  <-- do not rely on this value for anything but (periodic) metals
  | Electronic free energy per atom                       :         -11.92562318 eV

  Self-consistency convergence accuracy:
  | Change of charge density      :  0.7797E-04
  | Change of sum of eigenvalues  : -0.1534E-02 eV
  | Change of total energy        : -0.9733E-04 eV

  End self-consistency iteration #     4       :  max(cpu_time)    wall_clock(cpu1)
  | Time for this iteration                    :        0.043 s           0.043 s
  | Charge density update                      :        0.008 s           0.008 s
  | Density mixing                             :        0.003 s           0.002 s
  | Hartree multipole update                   :        0.002 s           0.003 s
  | Hartree multipole summation                :        0.014 s           0.013 s
  | Integration                                :        0.016 s           0.017 s
  | Fock matrix evaluation                     :        0.000 s           0.000 s
  | Solution of K.-S. eqns.                    :        0.000 s           0.000 s
  | Total energy evaluation                    :        0.000 s           0.000 s

  Partial memory accounting:
  | Current value for overall tracked memory usage on task 0  :           0.003 MB
  | Peak value for overall tracked memory usage on task 0     :           0.033 MB after allocating gradient_basis_wave
  | Largest tracked array allocation on task 0 so far         :           0.023 MB  when allocating gradient_basis_wave
  Note:  These values currently only include a subset of arrays which are explicitly tracked.
  The "true" memory usage will be greater.
------------------------------------------------------------

------------------------------------------------------------
          Begin self-consistency iteration #    5

  Date     :  20230430, Time     :  232306.127
------------------------------------------------------------
  Evaluating new KS density.
  Integration grid: deviation in total charge (<rho> - N_e) =   2.664535E-15
  Pulay mixing of updated and previous charge densities.

  Evaluating partitioned Hartree potential by multipole expansion.
  | Analytical far-field extrapolation by fixed multipoles:
  | Hartree multipole sum: apparent total charge =  -0.132729E-06
  Summing up the Hartree potential.
  Time summed over all CPUs for potential: real work        0.107 s, elapsed        0.108 s
  | RMS charge density error from multipole expansion :   0.287994E-05

  Integrating Hamiltonian matrix: batch-based integration.
  Time summed over all CPUs for integration: real work        0.128 s, elapsed        0.131 s
  Evaluating the exchange matrix ... 

  Updating Kohn-Sham eigenvalues and eigenvectors using ELSI and the ELPA eigensolver.
  Finished Cholesky decomposition
  | Time :     0.000 s
  Finished transformation to standard eigenproblem
  | Time :     0.000 s
  Starting LAPACK eigensolver
  Finished solving standard eigenproblem
  | Time :     0.000 s
  Finished back-transformation of eigenvectors
  | Time :     0.000 s

  Obtaining occupation numbers and chemical potential using ELSI.
  | Chemical potential (Fermi level):    -6.27757136eV
  Highest occupied state (VBM) at     -6.59630394 eV
  | Occupation number:      2.00000000

  Lowest unoccupied state (CBM) at    -6.14630088 eV
  | Occupation number:      0.00000000

  Overall HOMO-LUMO gap:      0.45000306 eV.

  Total energy components:
  | Sum of eigenvalues            :          -0.48481943 Ha         -13.19260788 eV
  | XC energy correction          :          -0.30247933 Ha          -8.23088148 eV
  | XC potential correction       :           0.49169197 Ha          13.37961927 eV
  | Free-atom electrostatic energy:          -0.57962318 Ha         -15.77234926 eV
  | Hartree energy correction     :          -0.00128691 Ha          -0.03501866 eV
  | Entropy correction            :           0.00000000 Ha           0.00000000 eV
  | ---------------------------
  | Total energy                  :          -0.87651689 Ha         -23.85123801 eV
  | Total energy, T -> 0          :          -0.87651689 Ha         -23.85123801 eV  <-- do not rely on this value for anything but (periodic) metals
  | Electronic free energy        :          -0.87651689 Ha         -23.85123801 eV

  Derived energy quantities:
  | Kinetic energy                :           1.34775226 Ha          36.67420488 eV
  | Electrostatic energy          :          -1.27473213 Ha         -34.68722623 eV
  | Energy correction for multipole
  | error in Hartree potential    :          -0.00000001 Ha          -0.00000023 eV
  | Sum of eigenvalues per atom                           :          -6.59630394 eV
  | Total energy (T->0) per atom                          :         -11.92561901 eV  <-- do not rely on this value for anything but (periodic) metals
  | Electronic free energy per atom                       :         -11.92561901 eV

  Self-consistency convergence accuracy:
  | Change of charge density      :  0.4531E-03
  | Change of sum of eigenvalues  : -0.3666E-04 eV
  | Change of total energy        :  0.8342E-05 eV

  End self-consistency iteration #     5       :  max(cpu_time)    wall_clock(cpu1)
  | Time for this iteration                    :        0.044 s           0.044 s
  | Charge density update                      :        0.008 s           0.008 s
  | Density mixing                             :        0.003 s           0.003 s
  | Hartree multipole update                   :        0.003 s           0.003 s
  | Hartree multipole summation                :        0.014 s           0.013 s
  | Integration                                :        0.016 s           0.017 s
  | Fock matrix evaluation                     :        0.000 s           0.000 s
  | Solution of K.-S. eqns.                    :        0.000 s           0.000 s
  | Total energy evaluation                    :        0.000 s           0.000 s

  Partial memory accounting:
  | Current value for overall tracked memory usage on task 0  :           0.003 MB
  | Peak value for overall tracked memory usage on task 0     :           0.033 MB after allocating gradient_basis_wave
  | Largest tracked array allocation on task 0 so far         :           0.023 MB  when allocating gradient_basis_wave
  Note:  These values currently only include a subset of arrays which are explicitly tracked.
  The "true" memory usage will be greater.
------------------------------------------------------------

------------------------------------------------------------
          Begin self-consistency iteration #    6

  Date     :  20230430, Time     :  232306.171
------------------------------------------------------------
  Evaluating new KS density.
  Integration grid: deviation in total charge (<rho> - N_e) =   8.881784E-16
  Pulay mixing of updated and previous charge densities.

  Evaluating partitioned Hartree potential by multipole expansion.
  | Analytical far-field extrapolation by fixed multipoles:
  | Hartree multipole sum: apparent total charge =  -0.132731E-06
  Summing up the Hartree potential.
  Time summed over all CPUs for potential: real work        0.107 s, elapsed        0.108 s
  | RMS charge density error from multipole expansion :   0.288001E-05

  Integrating Hamiltonian matrix: batch-based integration.
  Time summed over all CPUs for integration: real work        0.123 s, elapsed        0.127 s
  Evaluating the exchange matrix ... 

  Updating Kohn-Sham eigenvalues and eigenvectors using ELSI and the ELPA eigensolver.
  Finished Cholesky decomposition
  | Time :     0.000 s
  Finished transformation to standard eigenproblem
  | Time :     0.000 s
  Starting LAPACK eigensolver
  Finished solving standard eigenproblem
  | Time :     0.000 s
  Finished back-transformation of eigenvectors
  | Time :     0.000 s

  Obtaining occupation numbers and chemical potential using ELSI.
  | Chemical potential (Fermi level):    -6.27755190eV
  Highest occupied state (VBM) at     -6.59628459 eV
  | Occupation number:      2.00000000

  Lowest unoccupied state (CBM) at    -6.14626442 eV
  | Occupation number:      0.00000000

  Overall HOMO-LUMO gap:      0.45002017 eV.

  Total energy components:
  | Sum of eigenvalues            :          -0.48481801 Ha         -13.19256918 eV
  | XC energy correction          :          -0.30248060 Ha          -8.23091589 eV
  | XC potential correction       :           0.49169420 Ha          13.37968002 eV
  | Free-atom electrostatic energy:          -0.57962318 Ha         -15.77234926 eV
  | Hartree energy correction     :          -0.00128976 Ha          -0.03509617 eV
  | Entropy correction            :           0.00000000 Ha           0.00000000 eV
  | ---------------------------
  | Total energy                  :          -0.87651734 Ha         -23.85125048 eV
  | Total energy, T -> 0          :          -0.87651734 Ha         -23.85125048 eV  <-- do not rely on this value for anything but (periodic) metals
  | Electronic free energy        :          -0.87651734 Ha         -23.85125048 eV

  Derived energy quantities:
  | Kinetic energy                :           1.34776287 Ha          36.67449355 eV
  | Electrostatic energy          :          -1.27473799 Ha         -34.68738558 eV
  | Energy correction for multipole
  | error in Hartree potential    :          -0.00000001 Ha          -0.00000023 eV
  | Sum of eigenvalues per atom                           :          -6.59628459 eV
  | Total energy (T->0) per atom                          :         -11.92562524 eV  <-- do not rely on this value for anything but (periodic) metals
  | Electronic free energy per atom                       :         -11.92562524 eV

  Self-consistency convergence accuracy:
  | Change of charge density      :  0.4099E-05
  | Change of sum of eigenvalues  :  0.3870E-04 eV
  | Change of total energy        : -0.1247E-04 eV

  End self-consistency iteration #     6       :  max(cpu_time)    wall_clock(cpu1)
  | Time for this iteration                    :        0.043 s           0.044 s
  | Charge density update                      :        0.008 s           0.008 s
  | Density mixing                             :        0.003 s           0.003 s
  | Hartree multipole update                   :        0.003 s           0.003 s
  | Hartree multipole summation                :        0.014 s           0.013 s
  | Integration                                :        0.016 s           0.016 s
  | Fock matrix evaluation                     :        0.000 s           0.000 s
  | Solution of K.-S. eqns.                    :        0.000 s           0.000 s
  | Total energy evaluation                    :        0.000 s           0.000 s

  Partial memory accounting:
  | Current value for overall tracked memory usage on task 0  :           0.003 MB
  | Peak value for overall tracked memory usage on task 0     :           0.033 MB after allocating gradient_basis_wave
  | Largest tracked array allocation on task 0 so far         :           0.023 MB  when allocating gradient_basis_wave
  Note:  These values currently only include a subset of arrays which are explicitly tracked.
  The "true" memory usage will be greater.
------------------------------------------------------------

------------------------------------------------------------
          Begin self-consistency iteration #    7

  Date     :  20230430, Time     :  232306.215
------------------------------------------------------------
  Evaluating new KS density.
  Integration grid: deviation in total charge (<rho> - N_e) =   1.776357E-15
  Pulay mixing of updated and previous charge densities.

  Evaluating partitioned Hartree potential by multipole expansion.
  | Analytical far-field extrapolation by fixed multipoles:
  | Hartree multipole sum: apparent total charge =  -0.132731E-06
  Summing up the Hartree potential.
  Time summed over all CPUs for potential: real work        0.105 s, elapsed        0.108 s
  | RMS charge density error from multipole expansion :   0.288003E-05

  Integrating Hamiltonian matrix: batch-based integration.
  Time summed over all CPUs for integration: real work        0.123 s, elapsed        0.127 s
  Evaluating the exchange matrix ... 

  Updating Kohn-Sham eigenvalues and eigenvectors using ELSI and the ELPA eigensolver.
  Finished Cholesky decomposition
  | Time :     0.000 s
  Finished transformation to standard eigenproblem
  | Time :     0.000 s
  Starting LAPACK eigensolver
  Finished solving standard eigenproblem
  | Time :     0.000 s
  Finished back-transformation of eigenvectors
  | Time :     0.000 s

  Obtaining occupation numbers and chemical potential using ELSI.
  | Chemical potential (Fermi level):    -6.27752981eV
  Highest occupied state (VBM) at     -6.59626255 eV
  | Occupation number:      2.00000000

  Lowest unoccupied state (CBM) at    -6.14624239 eV
  | Occupation number:      0.00000000

  Overall HOMO-LUMO gap:      0.45002015 eV.

  Total energy components:
  | Sum of eigenvalues            :          -0.48481639 Ha         -13.19252509 eV
  | XC energy correction          :          -0.30248189 Ha          -8.23095110 eV
  | XC potential correction       :           0.49169601 Ha          13.37972912 eV
  | Free-atom electrostatic energy:          -0.57962318 Ha         -15.77234926 eV
  | Hartree energy correction     :          -0.00129204 Ha          -0.03515830 eV
  | Entropy correction            :           0.00000000 Ha           0.00000000 eV
  | ---------------------------
  | Total energy                  :          -0.87651750 Ha         -23.85125463 eV
  | Total energy, T -> 0          :          -0.87651750 Ha         -23.85125463 eV  <-- do not rely on this value for anything but (periodic) metals
  | Electronic free energy        :          -0.87651750 Ha         -23.85125463 eV

  Derived energy quantities:
  | Kinetic energy                :           1.34777029 Ha          36.67469549 eV
  | Electrostatic energy          :          -1.27474321 Ha         -34.68752770 eV
  | Energy correction for multipole
  | error in Hartree potential    :          -0.00000001 Ha          -0.00000023 eV
  | Sum of eigenvalues per atom                           :          -6.59626255 eV
  | Total energy (T->0) per atom                          :         -11.92562732 eV  <-- do not rely on this value for anything but (periodic) metals
  | Electronic free energy per atom                       :         -11.92562732 eV

  Self-consistency convergence accuracy:
  | Change of charge density      :  0.1909E-05
  | Change of sum of eigenvalues  :  0.4409E-04 eV
  | Change of total energy        : -0.4154E-05 eV

  End self-consistency iteration #     7       :  max(cpu_time)    wall_clock(cpu1)
  | Time for this iteration                    :        0.043 s           0.043 s
  | Charge density update                      :        0.008 s           0.008 s
  | Density mixing                             :        0.003 s           0.003 s
  | Hartree multipole update                   :        0.003 s           0.002 s
  | Hartree multipole summation                :        0.014 s           0.014 s
  | Integration                                :        0.016 s           0.016 s
  | Fock matrix evaluation                     :        0.000 s           0.000 s
  | Solution of K.-S. eqns.                    :        0.000 s           0.000 s
  | Total energy evaluation                    :        0.000 s           0.000 s

  Partial memory accounting:
  | Current value for overall tracked memory usage on task 0  :           0.003 MB
  | Peak value for overall tracked memory usage on task 0     :           0.033 MB after allocating gradient_basis_wave
  | Largest tracked array allocation on task 0 so far         :           0.023 MB  when allocating gradient_basis_wave
  Note:  These values currently only include a subset of arrays which are explicitly tracked.
  The "true" memory usage will be greater.
------------------------------------------------------------

------------------------------------------------------------
          Begin self-consistency iteration #    8

  Date     :  20230430, Time     :  232306.259
------------------------------------------------------------
  Evaluating new KS density.
  Integration grid: deviation in total charge (<rho> - N_e) =   1.776357E-15
  Pulay mixing of updated and previous charge densities.

  Evaluating partitioned Hartree potential by multipole expansion.
  | Analytical far-field extrapolation by fixed multipoles:
  | Hartree multipole sum: apparent total charge =  -0.132731E-06
  Summing up the Hartree potential.
  Time summed over all CPUs for potential: real work        0.105 s, elapsed        0.108 s
  | RMS charge density error from multipole expansion :   0.288003E-05

  Integrating Hamiltonian matrix: batch-based integration.
  Time summed over all CPUs for integration: real work        0.125 s, elapsed        0.128 s
  Evaluating the exchange matrix ... 

  Updating Kohn-Sham eigenvalues and eigenvectors using ELSI and the ELPA eigensolver.
  Finished Cholesky decomposition
  | Time :     0.000 s
  Finished transformation to standard eigenproblem
  | Time :     0.000 s
  Starting LAPACK eigensolver
  Finished solving standard eigenproblem
  | Time :     0.001 s
  Finished back-transformation of eigenvectors
  | Time :     0.000 s

  Obtaining occupation numbers and chemical potential using ELSI.
  | Chemical potential (Fermi level):    -6.27752976eV
  Highest occupied state (VBM) at     -6.59626250 eV
  | Occupation number:      2.00000000

  Lowest unoccupied state (CBM) at    -6.14624234 eV
  | Occupation number:      0.00000000

  Overall HOMO-LUMO gap:      0.45002015 eV.

  Total energy components:
  | Sum of eigenvalues            :          -0.48481638 Ha         -13.19252499 eV
  | XC energy correction          :          -0.30248190 Ha          -8.23095137 eV
  | XC potential correction       :           0.49169601 Ha          13.37972924 eV
  | Free-atom electrostatic energy:          -0.57962318 Ha         -15.77234926 eV
  | Hartree energy correction     :          -0.00129205 Ha          -0.03515845 eV
  | Entropy correction            :           0.00000000 Ha           0.00000000 eV
  | ---------------------------
  | Total energy                  :          -0.87651750 Ha         -23.85125483 eV
  | Total energy, T -> 0          :          -0.87651750 Ha         -23.85125483 eV  <-- do not rely on this value for anything but (periodic) metals
  | Electronic free energy        :          -0.87651750 Ha         -23.85125483 eV

  Derived energy quantities:
  | Kinetic energy                :           1.34777025 Ha          36.67469445 eV
  | Electrostatic energy          :          -1.27474322 Ha         -34.68752803 eV
  | Energy correction for multipole
  | error in Hartree potential    :          -0.00000001 Ha          -0.00000023 eV
  | Sum of eigenvalues per atom                           :          -6.59626250 eV
  | Total energy (T->0) per atom                          :         -11.92562742 eV  <-- do not rely on this value for anything but (periodic) metals
  | Electronic free energy per atom                       :         -11.92562742 eV

  Self-consistency convergence accuracy:
  | Change of charge density      :  0.4538E-08
  | Change of sum of eigenvalues  :  0.1016E-06 eV
  | Change of total energy        : -0.1988E-06 eV

  Writing Kohn-Sham eigenvalues.

  State    Occupation    Eigenvalue [Ha]    Eigenvalue [eV]
      1       2.00000          -0.242408           -6.59626
      2       0.00000          -0.225870           -6.14624
      3       0.00000           0.466775           12.70160
      4       0.00000           0.466781           12.70175
      5       0.00000           1.256819           34.19979
      6       0.00000           1.256835           34.20022
      7       0.00000           1.256835           34.20022
      8       0.00000           1.256867           34.20109
      9       0.00000           1.256867           34.20109
     10       0.00000           1.256883           34.20153

  Highest occupied state (VBM) at     -6.59626250 eV
  | Occupation number:      2.00000000

  Lowest unoccupied state (CBM) at    -6.14624234 eV
  | Occupation number:      0.00000000

  Overall HOMO-LUMO gap:      0.45002015 eV.

  Self-consistency cycle converged.

  End self-consistency iteration #     8       :  max(cpu_time)    wall_clock(cpu1)
  | Time for this iteration                    :        0.044 s           0.044 s
  | Charge density update                      :        0.008 s           0.007 s
  | Density mixing                             :        0.003 s           0.004 s
  | Hartree multipole update                   :        0.003 s           0.002 s
  | Hartree multipole summation                :        0.014 s           0.014 s
  | Integration                                :        0.016 s           0.016 s
  | Fock matrix evaluation                     :        0.000 s           0.000 s
  | Solution of K.-S. eqns.                    :        0.000 s           0.001 s
  | Total energy evaluation                    :        0.000 s           0.000 s

  Partial memory accounting:
  | Current value for overall tracked memory usage on task 0  :           0.003 MB
  | Peak value for overall tracked memory usage on task 0     :           0.033 MB after allocating gradient_basis_wave
  | Largest tracked array allocation on task 0 so far         :           0.023 MB  when allocating gradient_basis_wave
  Note:  These values currently only include a subset of arrays which are explicitly tracked.
  The "true" memory usage will be greater.
------------------------------------------------------------
  |--------------------------------------------------------------------------
  | Final ELSI Output
  |--------------------------------------------------------------------------
  | ELSI Versioning Information
  |   Date stamp                   :                                         
  |   Git commit (abbrev.)         :                                 367ff8b 
  |   Git commit modified?         :                                     TRUE
  | 
  | Physical Properties
  |   Number of electrons          :                           0.20000000E+01
  |   Number of states             :                                       10
  | 
  | Matrix Properties
  |   Matrix format                :                              BLACS_DENSE
  |   Number of basis functions    :                                       10
  | 
  | Computational Details
  |   Parallel mode                :                              SINGLE_PROC
  |   Number of MPI tasks          :                                        1
  |   Solver requested             :                                     ELPA
  |   Was ELSI changed mid-run?    :                                     TRUE
  |   Number of ELSI calls         :                                        9
  | 
  | Timings
  |   Solver timings
  |      #  wall_clock   [s]     elsi_tag             user_tag
  |      1         0.001         LAPACK_REAL          FHI-AIMS_SCF_INIT
  |      2         0.000         LAPACK_REAL          FHI-AIMS_SCF
  |      3         0.000         LAPACK_REAL          FHI-AIMS_SCF
  |                0.001         MAX                  N/A
  |                0.000         MIN                  N/A
  |                0.000         AVERAGE              N/A
  |--------------------------------------------------------------------------
  | ELSI Project (c)  elsi-interchange.org
  |--------------------------------------------------------------------------

  Energy and forces in a compact form:
  | Total energy uncorrected      :         -0.238512548326554E+02 eV
  | Total energy corrected        :         -0.238512548326554E+02 eV  <-- do not rely on this value for anything but (periodic) metals
  | Electronic free energy        :         -0.238512548326554E+02 eV

  ---------------------------------------- 
  Double-Hybrid Density Functional is used 
  ---------------------------------------- 
  E_total(PBE0)         :        -0.876517504 Ha            -23.851254833 eV
  E_xc(PBE0)            :        -0.302481903 Ha             -8.230951371 eV
  E_x_hf(PBE0)          :         0.080882828 Ha              2.200933735 eV
  E_xc(ZRPS/DFT)        :        -0.258042474 Ha             -7.021692991 eV
  E_total(ZRPS/DFT)     :        -0.670312420 Ha            -18.240128984 eV
  ------------------------------------ 
  ------------------------------------ 
  Start decomposition of the XC Energy 
  ------------------------------------ 
  X and C from original XC functional choice 
  Hartree-Fock Energy :          0.080882828 Ha              2.200933735 eV
  X Energy            :         -0.272890059 Ha             -7.425716324 eV
  C Energy            :         -0.029591844 Ha             -0.805235047 eV
  Total XC Energy     :         -0.302481903 Ha             -8.230951371 eV
  ------------------------------------ 
  LDA X and C from self-consistent density 
  X Energy LDA        :         -0.395277457 Ha            -10.756046879 eV
  C Energy LDA        :         -0.080109186 Ha             -2.179881856 eV
  ------------------------------------ 
  End decomposition of the XC Energy 
  ------------------------------------ 

------------------------------------------------------------
---------------------------------------------
---------------------------------------------
 | PT2 calculation starts ...
---------------------------------------------
---------------------------------------------

  | Note : Resolution of identity applied 
  | Note : Non spin-polarized system 
---------------------------------------------
  | Homo level                                        1
  | Lumo level                                        2
  | Total Number of states                           10
  | Number of k-points                                1
  | Homo-Lumo Gap                            0.01653794 Ha          0.45002015 eV
---------------------------------------------
  First valence state in the frozen-core algorithm :           1
  |                             Main-group    Transition-metal
  | Atom number     ::                   2                   0
  | n_frozen_shell  ::                   0                   0
  Frozen core number for post-SCF calculation          :           0
  The ovlp_3KS matrix takes another      0 MiB x      8 procs =       0.000 GiB.

 
  Starts to calculate the exchange energy ...

---------------------------------------------
| Sum of correlation terms 
---------------------------------------------
  Screened coupling is invoked with    1.000000    1.000000    0.000000
  Initial energy  0.204E+01 0.000E+00 0.204E+01, generated energy  0.574E-01 0.000E+00 0.574E-01
  The   1th iteration yields    0.420E+00   0.000E+00   0.420E+00 with the energy change of       0.36298958
  The   2th iteration yields    0.301E+00   0.000E+00   0.301E+00 with the energy change of      -0.11918531
  The   3th iteration yields    0.237E+00   0.000E+00   0.237E+00 with the energy change of      -0.06465468
  The   4th iteration yields    0.261E+00   0.000E+00   0.261E+00 with the energy change of       0.02469940
  The   5th iteration yields    0.265E+00   0.000E+00   0.265E+00 with the energy change of       0.00329797
  The   6th iteration yields    0.263E+00   0.000E+00   0.263E+00 with the energy change of      -0.00129594
  The   7th iteration yields    0.263E+00   0.000E+00   0.263E+00 with the energy change of      -0.00028426
  The   8th iteration yields    0.263E+00   0.000E+00   0.263E+00 with the energy change of       0.00011154
  The   9th iteration yields    0.263E+00   0.000E+00   0.263E+00 with the energy change of       0.00002396
  The  10th iteration yields    0.263E+00   0.000E+00   0.263E+00 with the energy change of      -0.00000940
  The  11th iteration yields    0.263E+00   0.000E+00   0.263E+00 with the energy change of      -0.00000202
  The  12th iteration yields    0.263E+00   0.000E+00   0.263E+00 with the energy change of       0.00000079
  The  13th iteration yields    0.263E+00   0.000E+00   0.263E+00 with the energy change of       0.00000017
  The  14th iteration yields    0.263E+00   0.000E+00   0.263E+00 with the energy change of      -0.00000007
---------------------------------------------
 
 
 
          ---------------------------------------------------
          | sBGE2 calculation comes to finish ...  
 
          ---------------------------------------------------
          | Total time for calculating sBGE2 correction              :        0.000 s

---------------------------------------------
  | DHDF/DFT Energy                :         -0.67031242 Ha        -18.24012898 eV
  | Exx contribution               :         -0.16176566 Ha         -4.40186747 eV
  | PT2 contribution               :         -0.50915305 Ha        -13.85475947 eV
  | sBGE2 contribution             :         -0.06576872 Ha         -1.78965803 eV
---------------------------------------------
  | Total ZRPS energy              :         -0.89784680 Ha        -24.43165448 eV
  | Total ZRPS(DH) energy          :         -1.34123113 Ha        -36.49675592 eV
---------------------------------------------

------------------------------------------------------------------------------
  Final output of selected total energy values:

  The following output summarizes some interesting total energy values
  at the end of a run (AFTER all relaxation, molecular dynamics, etc.).

  | Total energy of the DFT / Hartree-Fock s.c.f. calculation      :            -18.240128984 eV
  | Final zero-broadening corrected energy (caution - metals only) :            -18.240128984 eV
  | Total energy after the post-s.c.f. correlation calculation     :            -32.094888451 eV
  | For reference only, the value of 1 Hartree used in FHI-aims is :             27.211384500 eV

  Before relying on these values, please be sure to understand exactly which
  total energy value is referred to by a given number. Different objects may
  all carry the same name 'total energy'. Definitions:

  Total energy of the DFT / Hartree-Fock s.c.f. calculation:
  | Note that this energy does not include ANY quantities calculated after the
  | s.c.f. cycle, in particular not ANY RPA, MP2, etc. many-body perturbation terms.

  Final zero-broadening corrected energy:
  | For metallic systems only, a broadening of the occupation numbers at the Fermi
  | level can be extrapolated back to zero broadening by an electron-gas inspired
  | formula. For all systems that are not real metals, this value can be
  | meaningless and should be avoided.

  Total energy of the post-s.c.f. correlation calculation        :
  | Resolution of identity used for the 2-electron Coulomb operator:          RI_V
  | The actual meaning of this energy depends on the setting for the 'total_energy_method'
  | keyword (MP2, RPA, rPT2, etc). If not sure, compare to the results listed above.

------------------------------------------------------------------------------
  Methods described in the following list of references were used in this FHI-aims run.
  If you publish the results, please make sure to cite these reference if they apply.
  FHI-aims is an academic code, and for our developers (often, Ph.D. students
  and postdocs), scientific credit in the community is essential.
  Thank you for helping us!

  For any use of FHI-aims, please cite:

    Volker Blum, Ralf Gehrke, Felix Hanke, Paula Havu, Ville Havu,
    Xinguo Ren, Karsten Reuter, and Matthias Scheffler
    'Ab initio molecular simulations with numeric atom-centered orbitals'
    Computer Physics Communications 180, 2175-2196 (2009)
    http://dx.doi.org/10.1016/j.cpc.2009.06.022


  For Hartree-Fock, hybrid functionals, or many-body perturbation theory used in your run, please cite:

    Xinguo Ren, Patrick Rinke, Volker Blum, Juergen Wieferink, Alex Tkatchenko,
    Andrea Sanfilippo, Karsten Reuter, and Matthias Scheffler,
    'Resolution-of-identity approach to Hartree-Fock, hybrid density functionals,
    RPA, MP2, and GW with numeric atom-centered orbital basis functions'
    New Journal of Physics 14, 053020 (2012).
    http://dx.doi.org/10.1088/1367-2630/14/5/053020


  The scalable eigensolver library ELPA was used in your run.
  ELPA is essential especially for large systems on hundreds or thousands of CPUs.
  For ELPA, please cite:

    Andreas Marek, Volker Blum, Rainer Johanni, Ville Havu, Bruno Lang,
    Thomas Auckenthaler, Alexander Heinecke, Hans-Joachim Bungartz, and Hermann Lederer,
    'The ELPA Library - Scalable Parallel Eigenvalue Solutions
    for Electronic Structure Theory and Computational Science'
    The Journal of Physics: Condensed Matter 26, 213201 (2014).
    http://dx.doi.org/10.1088/0953-8984/26/21/213201


  The ELSI infrastructure was used in your run to solve the Kohn-Sham electronic structure.
  Please check out http://elsi-interchange.org to learn more.
  If scalability is important for your project, please acknowledge ELSI by citing:

    V. W-z. Yu, F. Corsetti, A. Garcia, W. P. Huhn, M. Jacquelin, W. Jia,
    B. Lange, L. Lin, J. Lu, W. Mi, A. Seifitokaldani, A. Vazquez-Mayagoitia,
    C. Yang, H. Yang, and V. Blum
    'ELSI: A unified software interface for Kohn-Sham electronic structure solvers'
    Computer Physics Communications 222, 267-285 (2018).
    http://dx.doi.org/10.1016/j.cpc.2017.09.007


  For the real-space grid partitioning and parallelization used in this calculation, please cite:

    Ville Havu, Volker Blum, Paula Havu, and Matthias Scheffler,
    'Efficient O(N) integration for all-electron electronic structure calculation'
    'using numerically tabulated basis functions'
    Journal of Computational Physics 228, 8367-8379 (2009).
    http://dx.doi.org/10.1016/j.jcp.2009.08.008

  Of course, there are many other important community references, e.g., those cited in the
  above references. Our list is limited to references that describe implementations in the
  FHI-aims code. The reason is purely practical (length of this list) - please credit others as well.

------------------------------------------------------------
          Leaving FHI-aims.
          Date     :  20230430, Time     :  232306.325

          Computational steps:
          | Number of self-consistency cycles          :            8
          | Number of SCF (re)initializations          :            1

          Detailed time accounting                     :  max(cpu_time)    wall_clock(cpu1)
          | Total time                                 :        0.654 s           0.668 s
          | Preparation time                           :        0.051 s           0.052 s
          | Boundary condition initalization           :        0.000 s           0.000 s
          | Grid partitioning                          :        0.029 s           0.029 s
          | Preloading free-atom quantities on grid    :        0.011 s           0.011 s
          | Free-atom superposition energy             :        0.011 s           0.011 s
          | Total time for integrations                :        0.153 s           0.155 s
          | Product basis setup: Total time            :        0.096 s           0.096 s
          | Product basis: | 3-center integrations     :(       0.072 s)  (       0.071 s)
          | Product basis: | 2-center integrations     :(       0.020 s)  (       0.021 s)
          | Product basis: | 2-center linear algebra   :(       0.001 s)  (       0.000 s)
          | Product basis: | 3-center x 2-center       :(       0.000 s)  (       0.001 s)
          | Total time evaluating exchange matrix      :        0.001 s           0.000 s
          | Transforming ovlp_3fn to ovlp_3KS          :        0.000 s           0.000 s
          | Total time for solution of K.-S. equations :        0.003 s           0.003 s
          | Total time for density update              :        0.063 s           0.063 s
          | Total time for mixing                      :        0.022 s           0.023 s
          | Total time for Hartree multipole update    :        0.021 s           0.021 s
          | Total time for Hartree multipole sum       :        0.110 s           0.108 s
          | Total time for total energy evaluation     :        0.001 s           0.000 s

          Partial memory accounting:
          | Residual value for overall tracked memory usage across tasks :           0.000 MB (should be 0.000 MB)
          | Peak values for overall tracked memory usage (after allocating gradient_basis_wave):
          |   Minimum:        0.033 MB (on task 1)
          |   Maximum:        0.033 MB (on task 1)
          |   Average:        0.033 MB
          | Largest tracked array allocation (gradient_basis_wave):
          |   Minimum:        0.023 MB (on task 1)
          |   Maximum:        0.023 MB (on task 1)
          |   Average:        0.023 MB
          Note:  These values currently only include a subset of arrays which are explicitly tracked.
          The "true" memory usage will be greater.

          Have a nice day.
------------------------------------------------------------
